
     Program PWSCF v.7.1 starts on 20Mar2023 at 21:34:17 

     This program is part of the open-source Quantum ESPRESSO suite
     for quantum simulation of materials; please cite
         "P. Giannozzi et al., J. Phys.:Condens. Matter 21 395502 (2009);
         "P. Giannozzi et al., J. Phys.:Condens. Matter 29 465901 (2017);
         "P. Giannozzi et al., J. Chem. Phys. 152 154105 (2020);
          URL http://www.quantum-espresso.org", 
     in publications or presentations arising from this work. More details at
     http://www.quantum-espresso.org/quote

     Parallel version (MPI), running on     1 processors

     MPI processes distributed on     1 nodes
     1976 MiB available memory on the printing compute node when the environment starts

     Waiting for input...
     Reading input from standard input

     Current dimensions of program PWSCF are:
     Max number of different atomic species (ntypx) = 10
     Max number of k-points (npk) =  40000
     Max angular momentum in pseudopotentials (lmaxx) =  4
     file Cu.pz-d-rrkjus.UPF: wavefunction(s)  3D renormalized
     Message from routine setup:
     using ibrav=0 with symmetry is DISCOURAGED, use correct ibrav instead

     Subspace diagonalization in iterative solution of the eigenvalue problem:
     a serial algorithm will be used


     G-vector sticks info
     --------------------
     sticks:   dense  smooth     PW     G-vecs:    dense   smooth      PW
     Sum         821     421    137                19263     6877    1311

     Using Slab Decomposition



     bravais-lattice index     =            0
     lattice parameter (alat)  =       5.6692  a.u.
     unit-cell volume          =     200.4255 (a.u.)^3
     number of atoms/cell      =            2
     number of atomic types    =            2
     number of electrons       =        22.00
     number of Kohn-Sham states=           15
     kinetic-energy cutoff     =      40.0000  Ry
     charge density cutoff     =     320.0000  Ry
     scf convergence threshold =      1.0E-07
     mixing beta               =       0.2000
     number of iterations used =            8  plain     mixing
     energy convergence thresh.=      1.0E-04
     force convergence thresh. =      1.0E-03
     press convergence thresh. =      5.0E-01
     Exchange-correlation=  SLA  PZ   NOGX NOGC
                           (   1   1   0   0   0   0   0)
     nstep                     =           50


     celldm(1)=   5.669178  celldm(2)=   0.000000  celldm(3)=   0.000000
     celldm(4)=   0.000000  celldm(5)=   0.000000  celldm(6)=   0.000000

     crystal axes: (cart. coord. in units of alat)
               a(1) = (   1.000000   0.000000   0.000000 )  
               a(2) = (   0.000000   1.000000   0.000000 )  
               a(3) = (   0.000000   0.000000   1.100000 )  

     reciprocal axes: (cart. coord. in units 2 pi/alat)
               b(1) = (  1.000000  0.000000  0.000000 )  
               b(2) = (  0.000000  1.000000  0.000000 )  
               b(3) = (  0.000000  0.000000  0.909091 )  


     PseudoPot. # 1 for Cu read from file:
     /home/bond/Software/qe-7.1/pseudo/Cu.pz-d-rrkjus.UPF
     MD5 check sum: fd38ae683e239c95a66f426e1f8e5fc7
     Pseudo is Ultrasoft, Zval = 11.0
     Generated by new atomic code, or converted to UPF format
     Using radial grid of  899 points,  3 beta functions with: 
                l(1) =   2
                l(2) =   2
                l(3) =   1
     Q(r) pseudized with 0 coefficients 


     PseudoPot. # 2 for Au read from file:
     /home/bond/Software/qe-7.1/pseudo/Au.pz-d-rrkjus.UPF
     MD5 check sum: 424ffd4ac9c90487cbadcd287136c95b
     Pseudo is Ultrasoft, Zval = 11.0
     Generated by new atomic code, or converted to UPF format
     Using radial grid of 1279 points,  3 beta functions with: 
                l(1) =   2
                l(2) =   2
                l(3) =   1
     Q(r) pseudized with 0 coefficients 


     atomic species   valence    mass     pseudopotential
        Cu            11.00    63.54600     Cu( 1.00)
        Au            11.00   196.96650     Au( 1.00)

     16 Sym. Ops., with inversion, found



   Cartesian axes

     site n.     atom                  positions (alat units)
         1           Au  tau(   1) = (   0.0000000   0.0000000   0.0000000  )
         2           Cu  tau(   2) = (   0.5000000   0.5000000   0.5500000  )

     number of k points=    75  Methfessel-Paxton smearing, width (Ry)=  0.0200
                       cart. coord. in units 2pi/alat
        k(    1) = (   0.0000000   0.0000000   0.0000000), wk =   0.0039062
        k(    2) = (   0.0000000   0.0000000   0.1136364), wk =   0.0078125
        k(    3) = (   0.0000000   0.0000000   0.2272727), wk =   0.0078125
        k(    4) = (   0.0000000   0.0000000   0.3409091), wk =   0.0078125
        k(    5) = (   0.0000000   0.0000000  -0.4545455), wk =   0.0039062
        k(    6) = (   0.0000000   0.1250000   0.0000000), wk =   0.0156250
        k(    7) = (   0.0000000   0.1250000   0.1136364), wk =   0.0312500
        k(    8) = (   0.0000000   0.1250000   0.2272727), wk =   0.0312500
        k(    9) = (   0.0000000   0.1250000   0.3409091), wk =   0.0312500
        k(   10) = (   0.0000000   0.1250000  -0.4545455), wk =   0.0156250
        k(   11) = (   0.0000000   0.2500000   0.0000000), wk =   0.0156250
        k(   12) = (   0.0000000   0.2500000   0.1136364), wk =   0.0312500
        k(   13) = (   0.0000000   0.2500000   0.2272727), wk =   0.0312500
        k(   14) = (   0.0000000   0.2500000   0.3409091), wk =   0.0312500
        k(   15) = (   0.0000000   0.2500000  -0.4545455), wk =   0.0156250
        k(   16) = (   0.0000000   0.3750000   0.0000000), wk =   0.0156250
        k(   17) = (   0.0000000   0.3750000   0.1136364), wk =   0.0312500
        k(   18) = (   0.0000000   0.3750000   0.2272727), wk =   0.0312500
        k(   19) = (   0.0000000   0.3750000   0.3409091), wk =   0.0312500
        k(   20) = (   0.0000000   0.3750000  -0.4545455), wk =   0.0156250
        k(   21) = (   0.0000000  -0.5000000   0.0000000), wk =   0.0078125
        k(   22) = (   0.0000000  -0.5000000   0.1136364), wk =   0.0156250
        k(   23) = (   0.0000000  -0.5000000   0.2272727), wk =   0.0156250
        k(   24) = (   0.0000000  -0.5000000   0.3409091), wk =   0.0156250
        k(   25) = (   0.0000000  -0.5000000  -0.4545455), wk =   0.0078125
        k(   26) = (   0.1250000   0.1250000   0.0000000), wk =   0.0156250
        k(   27) = (   0.1250000   0.1250000   0.1136364), wk =   0.0312500
        k(   28) = (   0.1250000   0.1250000   0.2272727), wk =   0.0312500
        k(   29) = (   0.1250000   0.1250000   0.3409091), wk =   0.0312500
        k(   30) = (   0.1250000   0.1250000  -0.4545455), wk =   0.0156250
        k(   31) = (   0.1250000   0.2500000   0.0000000), wk =   0.0312500
        k(   32) = (   0.1250000   0.2500000   0.1136364), wk =   0.0625000
        k(   33) = (   0.1250000   0.2500000   0.2272727), wk =   0.0625000
        k(   34) = (   0.1250000   0.2500000   0.3409091), wk =   0.0625000
        k(   35) = (   0.1250000   0.2500000  -0.4545455), wk =   0.0312500
        k(   36) = (   0.1250000   0.3750000   0.0000000), wk =   0.0312500
        k(   37) = (   0.1250000   0.3750000   0.1136364), wk =   0.0625000
        k(   38) = (   0.1250000   0.3750000   0.2272727), wk =   0.0625000
        k(   39) = (   0.1250000   0.3750000   0.3409091), wk =   0.0625000
        k(   40) = (   0.1250000   0.3750000  -0.4545455), wk =   0.0312500
        k(   41) = (   0.1250000  -0.5000000   0.0000000), wk =   0.0156250
        k(   42) = (   0.1250000  -0.5000000   0.1136364), wk =   0.0312500
        k(   43) = (   0.1250000  -0.5000000   0.2272727), wk =   0.0312500
        k(   44) = (   0.1250000  -0.5000000   0.3409091), wk =   0.0312500
        k(   45) = (   0.1250000  -0.5000000  -0.4545455), wk =   0.0156250
        k(   46) = (   0.2500000   0.2500000   0.0000000), wk =   0.0156250
        k(   47) = (   0.2500000   0.2500000   0.1136364), wk =   0.0312500
        k(   48) = (   0.2500000   0.2500000   0.2272727), wk =   0.0312500
        k(   49) = (   0.2500000   0.2500000   0.3409091), wk =   0.0312500
        k(   50) = (   0.2500000   0.2500000  -0.4545455), wk =   0.0156250
        k(   51) = (   0.2500000   0.3750000   0.0000000), wk =   0.0312500
        k(   52) = (   0.2500000   0.3750000   0.1136364), wk =   0.0625000
        k(   53) = (   0.2500000   0.3750000   0.2272727), wk =   0.0625000
        k(   54) = (   0.2500000   0.3750000   0.3409091), wk =   0.0625000
        k(   55) = (   0.2500000   0.3750000  -0.4545455), wk =   0.0312500
        k(   56) = (   0.2500000  -0.5000000   0.0000000), wk =   0.0156250
        k(   57) = (   0.2500000  -0.5000000   0.1136364), wk =   0.0312500
        k(   58) = (   0.2500000  -0.5000000   0.2272727), wk =   0.0312500
        k(   59) = (   0.2500000  -0.5000000   0.3409091), wk =   0.0312500
        k(   60) = (   0.2500000  -0.5000000  -0.4545455), wk =   0.0156250
        k(   61) = (   0.3750000   0.3750000   0.0000000), wk =   0.0156250
        k(   62) = (   0.3750000   0.3750000   0.1136364), wk =   0.0312500
        k(   63) = (   0.3750000   0.3750000   0.2272727), wk =   0.0312500
        k(   64) = (   0.3750000   0.3750000   0.3409091), wk =   0.0312500
        k(   65) = (   0.3750000   0.3750000  -0.4545455), wk =   0.0156250
        k(   66) = (   0.3750000  -0.5000000   0.0000000), wk =   0.0156250
        k(   67) = (   0.3750000  -0.5000000   0.1136364), wk =   0.0312500
        k(   68) = (   0.3750000  -0.5000000   0.2272727), wk =   0.0312500
        k(   69) = (   0.3750000  -0.5000000   0.3409091), wk =   0.0312500
        k(   70) = (   0.3750000  -0.5000000  -0.4545455), wk =   0.0156250
        k(   71) = (  -0.5000000  -0.5000000   0.0000000), wk =   0.0039062
        k(   72) = (  -0.5000000  -0.5000000   0.1136364), wk =   0.0078125
        k(   73) = (  -0.5000000  -0.5000000   0.2272727), wk =   0.0078125
        k(   74) = (  -0.5000000  -0.5000000   0.3409091), wk =   0.0078125
        k(   75) = (  -0.5000000  -0.5000000  -0.4545455), wk =   0.0039062

     Dense  grid:    19263 G-vectors     FFT dimensions: (  36,  36,  36)

     Smooth grid:     6877 G-vectors     FFT dimensions: (  24,  24,  25)

     Estimated max dynamical RAM per process >      64.14 MB

     Initial potential from superposition of free atoms

     starting charge      21.9996, renormalised to      22.0000
     Starting wfcs are   15 randomized atomic wfcs

     total cpu time spent up to now is        3.1 secs

     Self-consistent Calculation

     iteration #  1     ecut=    40.00 Ry     beta= 0.20
     Davidson diagonalization with overlap
     ethr =  1.00E-02,  avg # of iterations =  3.4

     total cpu time spent up to now is        4.7 secs

     total energy              =    -154.72469114 Ry
     estimated scf accuracy    <       0.27717614 Ry

     iteration #  2     ecut=    40.00 Ry     beta= 0.20
     Davidson diagonalization with overlap
     ethr =  1.26E-03,  avg # of iterations =  1.0

     total cpu time spent up to now is        5.9 secs

     total energy              =    -154.71905723 Ry
     estimated scf accuracy    <       0.06305784 Ry

     iteration #  3     ecut=    40.00 Ry     beta= 0.20
     Davidson diagonalization with overlap
     ethr =  2.87E-04,  avg # of iterations =  2.1

     total cpu time spent up to now is        7.3 secs

     total energy              =    -154.72473875 Ry
     estimated scf accuracy    <       0.00425723 Ry

     iteration #  4     ecut=    40.00 Ry     beta= 0.20
     Davidson diagonalization with overlap
     ethr =  1.94E-05,  avg # of iterations =  4.3

     total cpu time spent up to now is        8.8 secs

     total energy              =    -154.72541950 Ry
     estimated scf accuracy    <       0.00040917 Ry

     iteration #  5     ecut=    40.00 Ry     beta= 0.20
     Davidson diagonalization with overlap
     c_bands:  1 eigenvalues not converged
     ethr =  1.86E-06,  avg # of iterations =  3.9

     total cpu time spent up to now is       10.3 secs

     total energy              =    -154.72542802 Ry
     estimated scf accuracy    <       0.00002842 Ry

     iteration #  6     ecut=    40.00 Ry     beta= 0.20
     Davidson diagonalization with overlap
     ethr =  1.29E-07,  avg # of iterations =  1.2

     total cpu time spent up to now is       11.5 secs

     total energy              =    -154.72543061 Ry
     estimated scf accuracy    <       0.00000152 Ry

     iteration #  7     ecut=    40.00 Ry     beta= 0.20
     Davidson diagonalization with overlap
     ethr =  6.90E-09,  avg # of iterations =  2.1

     total cpu time spent up to now is       13.1 secs

     total energy              =    -154.72542923 Ry
     estimated scf accuracy    <       0.00000800 Ry

     iteration #  8     ecut=    40.00 Ry     beta= 0.20
     Davidson diagonalization with overlap
     ethr =  6.90E-09,  avg # of iterations =  2.0

     total cpu time spent up to now is       14.6 secs

     End of self-consistent calculation

          k = 0.0000 0.0000 0.0000 (   865 PWs)   bands (ev):

     4.7787   8.1278   8.1889  10.2357  10.2357  10.6895  11.8151  12.1626
    12.5914  12.7098  12.7098  19.3949  22.3748  22.3748  25.1610

          k = 0.0000 0.0000 0.1136 (   853 PWs)   bands (ev):

     5.0272   8.1978   8.3014  10.2380  10.2380  10.7461  11.7331  12.1557
    12.5290  12.5459  12.5459  17.8948  22.8517  22.8517  26.8181

          k = 0.0000 0.0000 0.2273 (   865 PWs)   bands (ev):

     5.7232   8.3823   8.5978  10.2490  10.2490  10.9024  11.5191  12.1273
    12.1765  12.1765  12.3587  15.4069  24.1513  24.1513  28.3489

          k = 0.0000 0.0000 0.3409 (   852 PWs)   bands (ev):

     6.6509   8.5970   8.9637  10.2710  10.2710  11.1080  11.2741  11.8317
    11.8317  12.0623  12.1390  13.2581  26.0214  26.0214  28.2874

          k = 0.0000 0.0000-0.4545 (   844 PWs)   bands (ev):

     7.1701   8.6988   9.1834  10.2848  10.2848  11.1596  11.2253  11.6925
    11.6925  11.9181  12.0158  12.3711  28.0031  28.0032  28.1098

          k = 0.0000 0.1250 0.0000 (   857 PWs)   bands (ev):

     5.0904   8.2544   8.3492  10.1550  10.3150  10.6190  11.8264  12.1213
    12.4132  12.4385  12.6287  20.0578  20.3949  22.9408  25.5768

          k = 0.0000 0.1250 0.1136 (   856 PWs)   bands (ev):

     5.3334   8.3232   8.4590  10.1341  10.2489  10.7210  11.7685  12.1154
    12.1922  12.2795  12.6833  18.4891  20.8320  23.3761  27.3860

          k = 0.0000 0.1250 0.2273 (   860 PWs)   bands (ev):

     6.0100   8.4922   8.7436  10.0951  10.1742  10.8511  11.6178  11.9094
    11.9409  12.1007  12.6136  15.9586  21.9331  24.5843  28.2531

          k = 0.0000 0.1250 0.3409 (   850 PWs)   bands (ev):

     6.9087   8.6870   8.9519  10.1576  10.2124  10.8161  11.4567  11.6538
    11.8942  12.0896  12.4047  13.7215  23.4383  26.3633  26.9782

          k = 0.0000 0.1250-0.4545 (   846 PWs)   bands (ev):

     7.4285   8.8362   8.8455  10.1686  10.5203  10.7434  11.4027  11.4885
    12.0868  12.1647  12.2370  12.4938  25.0575  25.2812  28.4496

          k = 0.0000 0.2500 0.0000 (   869 PWs)   bands (ev):

     5.9512   8.5294   8.8326   9.9443  10.4356  10.5351  11.6941  11.9340
    12.0507  12.1707  12.4039  17.4021  21.7229  24.4551  25.8108

          k = 0.0000 0.2500 0.1136 (   855 PWs)   bands (ev):

     6.1678   8.5719   8.9454   9.8941  10.2175  10.6821  11.7144  11.8332
    11.8717  12.1421  12.5961  17.7671  19.9029  24.7992  27.8929

          k = 0.0000 0.2500 0.2273 (   851 PWs)   bands (ev):

     6.7403   8.5960   9.2946   9.8617  10.0182  10.5735  11.6609  11.7434
    11.8975  12.0832  12.7405  17.0566  18.8862  25.7789  26.1569

          k = 0.0000 0.2500 0.3409 (   857 PWs)   bands (ev):

     7.4285   8.4571   9.5320   9.9316  10.2917  10.3846  11.5565  11.7236
    12.1145  12.1774  12.6938  14.6183  20.2314  23.9932  27.2571

          k = 0.0000 0.2500-0.4545 (   854 PWs)   bands (ev):

     7.8512   8.2382   9.5719   9.9403  10.1341  11.1391  11.3339  11.7034
    12.4740  12.4910  12.6982  12.8705  21.5420  22.4002  28.7168

          k = 0.0000 0.3750 0.0000 (   856 PWs)   bands (ev):

     7.0672   8.8688   9.3940   9.7134  10.2346  10.8302  11.4132  11.5684
    11.7643  12.1040  12.4107  14.7890  23.9360  26.1178  26.5971

          k = 0.0000 0.3750 0.1136 (   856 PWs)   bands (ev):

     7.2211   8.8208   9.2326  10.0391  10.0976  10.6567  11.5030  11.5670
    11.8272  12.3506  12.3771  15.0389  21.6777  26.0183  26.8419

          k = 0.0000 0.3750 0.2273 (   858 PWs)   bands (ev):

     7.5279   8.4573   9.6599   9.8659  10.2639  10.5245  11.6145  11.6808
    12.1394  12.2761  12.6606  15.5604  19.0237  23.5201  27.5043

          k = 0.0000 0.3750 0.3409 (   857 PWs)   bands (ev):

     7.7276   8.1367   9.7154   9.9185  10.5368  11.0479  11.8011  11.8705
    12.1616  12.4910  12.8026  15.0630  17.9459  21.3676  28.3457

          k = 0.0000 0.3750-0.4545 (   862 PWs)   bands (ev):

     7.7854   8.0156   9.6973   9.7553  10.9648  11.3364  11.8147  11.9186
    12.7308  12.7431  13.1619  13.3253  18.4254  20.1948  28.8146

          k = 0.0000-0.5000 0.0000 (   868 PWs)   bands (ev):

     7.6692   9.0616   9.6131   9.6586  10.1469  11.0062  11.2644  11.4451
    11.6635  11.9259  12.9330  13.2171  26.0091  26.4451  27.1402

          k = 0.0000-0.5000 0.1136 (   868 PWs)   bands (ev):

     7.7981   8.8387   9.1878  10.0275  10.4822  10.6413  11.3827  11.5014
    12.0088  12.0843  12.9840  13.2643  23.4079  24.0447  29.2427

          k = 0.0000-0.5000 0.2273 (   862 PWs)   bands (ev):

     7.9864   8.1896   9.7374   9.7951  10.1517  11.2741  11.6371  11.6603
    12.4128  12.4509  13.1477  13.3845  20.3804  21.7043  29.1573

          k = 0.0000-0.5000 0.3409 (   860 PWs)   bands (ev):

     7.7676   8.0436   9.6086   9.8086  10.6973  11.7649  11.8145  12.0370
    12.6984  12.7457  13.4075  13.5117  17.8809  19.9701  28.9467

          k = 0.0000-0.5000-0.4545 (   868 PWs)   bands (ev):

     7.6215   8.0468   9.5399   9.6868  11.2196  11.8684  12.0098  12.2696
    12.8089  12.8473  13.5612  13.5690  16.7305  19.2820  28.8550

          k = 0.1250 0.1250 0.0000 (   862 PWs)   bands (ev):

     5.3977   8.4392   8.4445  10.0449  10.3921  10.5171  11.8679  12.0815
    12.0871  12.2474  12.7394  20.6379  20.7893  20.9810  25.9211

          k = 0.1250 0.1250 0.1136 (   856 PWs)   bands (ev):

     5.6368   8.5041   8.5559  10.0223  10.2305  10.6351  11.8184  11.8574
    12.0840  12.4151  12.5781  18.9911  21.1872  21.4142  27.8296

          k = 0.1250 0.1250 0.2273 (   862 PWs)   bands (ev):

     6.2999   8.6619   8.8293   9.9596  10.0927  10.6038  11.6977  11.8032
    12.0859  12.2220  12.4381  16.4513  22.0813  22.5581  29.4307

          k = 0.1250 0.1250 0.3409 (   856 PWs)   bands (ev):

     7.1823   8.8490   8.9109   9.8767  10.2878  10.4999  11.5849  11.8729
    11.8896  12.2011  12.2793  14.2158  23.3835  24.1028  27.1348

          k = 0.1250 0.1250-0.4545 (   854 PWs)   bands (ev):

     7.7284   8.7224   8.9408   9.8309  10.4458  10.7843  11.5515  11.6492
    11.7450  12.1235  12.7465  12.8663  24.7429  25.4023  25.4225

          k = 0.1250 0.2500 0.0000 (   866 PWs)   bands (ev):

     6.2383   8.6854   8.9151   9.8304  10.2910  10.4641  11.7358  11.8047
    11.9458  12.1351  12.6466  17.8326  22.1123  22.1574  26.1024

          k = 0.1250 0.2500 0.1136 (   862 PWs)   bands (ev):

     6.4568   8.7606   8.9980   9.7867  10.1153  10.4189  11.7436  11.8400
    12.0438  12.1151  12.5766  18.1954  20.2423  22.5205  28.1119

          k = 0.1250 0.2500 0.2273 (   857 PWs)   bands (ev):

     7.0323   8.8078   9.3129   9.7321   9.9204  10.1914  11.7948  11.9451
    12.0157  12.1521  12.5314  17.5331  19.1795  23.3365  26.5238

          k = 0.1250 0.2500 0.3409 (   854 PWs)   bands (ev):

     7.7199   8.6431   9.4982   9.7042   9.9901  10.3792  11.7014  11.8151
    11.9975  12.4054  12.6160  15.1571  20.4951  24.0809  24.7174

          k = 0.1250 0.2500-0.4545 (   850 PWs)   bands (ev):

     8.2261   8.3162   9.5506   9.6474   9.9337  11.1228  11.4298  11.7993
    12.0275  12.1898  13.3280  13.6037  21.8379  22.4991  25.8319

          k = 0.1250 0.3750 0.0000 (   859 PWs)   bands (ev):

     7.3194   8.9786   9.1983   9.6042  10.3538  10.4336  11.6024  11.7484
    11.7778  12.3786  12.3813  15.1084  23.7537  24.2556  26.2683

          k = 0.1250 0.3750 0.1136 (   860 PWs)   bands (ev):

     7.4854   8.9809   9.1256   9.6485  10.1801  10.4565  11.6484  11.7337
    12.0215  12.3495  12.4230  15.4099  21.8667  24.1954  26.3527

          k = 0.1250 0.3750 0.2273 (   853 PWs)   bands (ev):

     7.7991   8.6457   9.5316   9.6957   9.9246  10.5555  11.6964  11.7842
    12.2264  12.4972  12.5798  16.0772  19.2279  23.6521  24.8785

          k = 0.1250 0.3750 0.3409 (   859 PWs)   bands (ev):

     7.9235   8.4279   9.5260   9.6833  10.5268  10.8628  11.7021  11.8720
    12.1398  12.5037  13.1676  15.8186  18.0837  21.4861  25.7450

          k = 0.1250 0.3750-0.4545 (   856 PWs)   bands (ev):

     7.9104   8.3811   9.5104   9.5707  10.8960  11.3584  11.6353  11.9111
    12.2106  12.2942  14.0026  14.3900  18.6928  20.2364  26.5591

          k = 0.1250-0.5000 0.0000 (   856 PWs)   bands (ev):

     7.9466   9.0197   9.1536   9.5043  10.3991  10.6641  11.5491  11.7366
    11.9755  12.0902  13.0288  13.2953  25.3786  26.0018  26.4177

          k = 0.1250-0.5000 0.1136 (   862 PWs)   bands (ev):

     8.1141   8.7308   9.2307   9.5288  10.2526  10.8319  11.5801  11.6355
    12.1762  12.2378  13.2087  13.4335  23.5391  24.1373  26.1023

          k = 0.1250-0.5000 0.2273 (   858 PWs)   bands (ev):

     8.2489   8.3567   9.4806   9.6968   9.9304  11.2041  11.6493  11.7362
    12.3516  12.3852  13.7620  13.8044  20.6390  21.7753  26.3675

          k = 0.1250-0.5000 0.3409 (   858 PWs)   bands (ev):

     7.8860   8.4089   9.3945   9.6444  10.6537  11.6641  11.7468  11.8945
    12.3265  12.3782  14.3369  14.4522  18.0939  19.9945  26.8347

          k = 0.1250-0.5000-0.4545 (   868 PWs)   bands (ev):

     7.7549   8.4053   9.3556   9.5379  11.2687  11.9179  11.9873  12.0003
    12.0171  12.2715  14.8094  14.8163  16.7736  19.2607  27.2172

          k = 0.2500 0.2500 0.0000 (   856 PWs)   bands (ev):

     6.9695   8.8041   9.3787   9.6062  10.1232  10.1289  11.8017  11.8066
    12.0145  12.0656  12.8109  18.4110  19.4573  23.3567  26.1082

          k = 0.2500 0.2500 0.1136 (   857 PWs)   bands (ev):

     7.1841   8.9496   9.3814   9.5826   9.8866  10.0330  11.9026  11.9903
    12.0012  12.1399  12.6449  18.8669  19.5900  21.3976  27.5448

          k = 0.2500 0.2500 0.2273 (   847 PWs)   bands (ev):

     7.7208   9.2582   9.3423   9.5701   9.6467   9.8192  11.9640  11.9840
    12.1038  12.3193  12.6134  18.5674  20.0419  20.2091  26.5187

          k = 0.2500 0.2500 0.3409 (   855 PWs)   bands (ev):

     8.2330   9.1518   9.2551   9.5843   9.6040  10.3680  11.8593  11.9092
    12.0786  12.1104  13.2923  16.2263  21.0469  21.6393  24.2026

          k = 0.2500 0.2500-0.4545 (   848 PWs)   bands (ev):

     8.3977   9.1099   9.2130   9.5316   9.6238  11.1116  11.4935  11.8710
    12.0083  12.0793  14.0805  14.7357  22.3135  22.4204  23.5334

          k = 0.2500 0.3750 0.0000 (   850 PWs)   bands (ev):

     7.7627   8.6474   9.3855   9.7428   9.8039  10.7654  11.7912  12.0080
    12.1241  12.2944  12.7341  15.8239  20.6496  24.9686  25.0955

          k = 0.2500 0.3750 0.1136 (   853 PWs)   bands (ev):

     7.9333   8.7983   9.2858   9.6420   9.7414  10.6745  11.8290  11.9339
    12.2394  12.5631  12.6175  16.2300  20.7690  22.9103  25.1382

          k = 0.2500 0.3750 0.2273 (   854 PWs)   bands (ev):

     8.2201   9.0816   9.2583   9.4159   9.7242  10.6048  11.8374  11.9921
    12.1813  12.3734  13.3100  17.1624  19.8454  21.7319  23.9765

          k = 0.2500 0.3750 0.3409 (   860 PWs)   bands (ev):

     8.2621   9.0286   9.2099   9.4085  10.4329  10.6514  11.7395  12.0332
    12.0709  12.2629  14.1591  17.3404  18.5634  21.8117  22.6995

          k = 0.2500 0.3750-0.4545 (   856 PWs)   bands (ev):

     8.2193   9.0456   9.1356   9.3893  10.7012  11.2121  11.4315  11.9918
    12.0390  12.2114  15.0416  15.9117  19.5638  20.3998  23.9045

          k = 0.2500-0.5000 0.0000 (   846 PWs)   bands (ev):

     8.2668   8.3457   9.2833   9.6958   9.8151  11.3459  11.9036  11.9896
    12.4502  12.4971  13.3647  13.5178  22.1090  23.2130  26.9032

          k = 0.2500-0.5000 0.1136 (   856 PWs)   bands (ev):

     8.2926   8.6073   9.1711   9.6015   9.7874  11.2733  11.8508  11.9411
    12.3858  12.4049  13.8741  13.8947  22.2302  23.1646  24.5906

          k = 0.2500-0.5000 0.2273 (   858 PWs)   bands (ev):

     8.2878   8.9808   9.2337   9.4431   9.7482  11.1991  11.7719  11.9688
    12.2750  12.3653  14.5742  14.9297  21.3315  21.8743  23.6228

          k = 0.2500-0.5000 0.3409 (   862 PWs)   bands (ev):

     8.1690   8.9154   9.2322   9.4008  10.4928  11.2800  11.6990  12.0229
    12.1433  12.3137  15.4662  16.0205  18.8671  20.1059  24.5842

          k = 0.2500-0.5000-0.4545 (   852 PWs)   bands (ev):

     8.0963   8.9126   9.1615   9.3609  11.2954  11.3656  11.3950  12.0361
    12.0374  12.2788  16.6427  16.6533  16.9873  19.2402  24.6946

          k = 0.3750 0.3750 0.0000 (   856 PWs)   bands (ev):

     7.8266   8.4399   9.1948   9.3469  10.8437  11.5487  12.0812  12.1945
    12.2387  12.5145  12.8827  15.8334  18.8250  22.4996  26.1226

          k = 0.3750 0.3750 0.1136 (   846 PWs)   bands (ev):

     7.9333   8.6795   9.1393   9.2478  10.7978  11.2284  11.9515  12.1660
    12.1880  12.6498  13.2437  16.4378  18.9173  22.5425  23.9702

          k = 0.3750 0.3750 0.2273 (   852 PWs)   bands (ev):

     8.1730   8.9864   8.9986   9.3912  10.6794  10.7966  11.9306  12.1463
    12.1621  12.3545  14.2356  17.8192  19.1940  21.3492  22.6171

          k = 0.3750 0.3750 0.3409 (   853 PWs)   bands (ev):

     8.3996   8.7505   8.8500  10.3334  10.5594  10.5991  11.7911  12.0534
    12.1450  12.2689  15.2881  18.8376  19.5396  19.8829  21.9543

          k = 0.3750 0.3750-0.4545 (   868 PWs)   bands (ev):

     8.4896   8.6531   8.7868  10.5114  10.5523  11.0040  11.5073  12.0160
    12.1287  12.2575  16.1980  17.4570  20.3627  20.9637  21.1103

          k = 0.3750-0.5000 0.0000 (   848 PWs)   bands (ev):

     7.7499   8.4255   9.1000   9.2059  11.2179  12.0165  12.0571  12.2121
    12.7807  12.8100  13.8544  13.8768  19.1694  21.0478  26.6920

          k = 0.3750-0.5000 0.1136 (   848 PWs)   bands (ev):

     7.8391   8.6834   9.0278   9.1493  11.1082  11.8352  12.0360  12.1841
    12.4477  12.4538  14.5058  14.7167  19.3638  21.0016  25.1728

          k = 0.3750-0.5000 0.2273 (   854 PWs)   bands (ev):

     8.0639   8.8431   9.0056   9.3918  10.8204  11.3842  11.9546  12.1715
    12.2020  12.3385  15.5478  16.1164  20.0030  20.7951  23.0927

          k = 0.3750-0.5000 0.3409 (   856 PWs)   bands (ev):

     8.3108   8.6381   8.8530  10.3257  10.5638  11.1229  11.7950  12.1017
    12.1578  12.3108  16.6477  17.5648  20.1398  20.3131  21.2997

          k = 0.3750-0.5000-0.4545 (   864 PWs)   bands (ev):

     8.4710   8.4964   8.7875  10.4689  10.9543  11.0573  11.5370  12.0699
    12.1432  12.3033  17.6802  18.6020  18.7092  19.3153  22.3968

          k =-0.5000-0.5000 0.0000 (   848 PWs)   bands (ev):

     7.5678   8.4256   9.0316   9.0316  12.0846  12.1197  12.2627  12.3208
    12.9126  12.9126  14.1705  14.1705  17.6397  20.1571  26.5932

          k =-0.5000-0.5000 0.1136 (   848 PWs)   bands (ev):

     7.6676   8.6776   8.9794   8.9794  12.0882  12.1083  12.2478  12.2478
    12.2574  12.3220  15.1472  15.1472  17.6870  20.0744  25.7141

          k =-0.5000-0.5000 0.2273 (   848 PWs)   bands (ev):

     7.9240   8.8453   8.8453   9.3677  11.5209  11.5209  12.0459  12.0970
    12.2354  12.3247  16.7819  16.7819  17.8798  19.8439  24.6841

          k =-0.5000-0.5000 0.3409 (   848 PWs)   bands (ev):

     8.2072   8.7005   8.7005  10.2720  11.0986  11.0986  11.8540  12.1057
    12.1960  12.3275  18.3713  18.5872  18.5872  19.5582  21.9135

          k =-0.5000-0.5000-0.4545 (   848 PWs)   bands (ev):

     8.3343   8.6380   8.6380  10.8529  10.9650  10.9650  11.6008  12.1093
    12.1727  12.3286  19.0320  19.4205  19.8658  19.8658  20.3866

     the Fermi energy is    14.2427 ev

!    total energy              =    -154.72543030 Ry
     estimated scf accuracy    <       0.00000007 Ry
     smearing contrib. (-TS)   =      -0.00005037 Ry
     internal energy E=F+TS    =    -154.72537994 Ry

     The total energy is F=E-TS. E is the sum of the following terms:
     one-electron contribution =      -8.88013502 Ry
     hartree contribution      =      29.09050522 Ry
     xc contribution           =     -24.45963669 Ry
     ewald contribution        =    -150.47611345 Ry

     convergence has been achieved in   8 iterations

     Forces acting on atoms (cartesian axes, Ry/au):

     atom    1 type  2   force =     0.00000000    0.00000000    0.00000000
     atom    2 type  1   force =     0.00000000    0.00000000    0.00000000

     Total force =     0.000000     Total SCF correction =     0.000000


     Computing stress (Cartesian axis) and pressure

          total   stress  (Ry/bohr**3)                   (kbar)     P=     -101.17
  -0.00070636   0.00000000   0.00000000         -103.91        0.00        0.00
   0.00000000  -0.00070636   0.00000000            0.00     -103.91        0.00
   0.00000000   0.00000000  -0.00065047            0.00        0.00      -95.69


     BFGS Geometry Optimization
     Energy error            =      0.0E+00 Ry
     Gradient error          =      0.0E+00 Ry/Bohr
     Cell gradient error     =      1.0E+02 kbar

     number of scf cycles    =   1
     number of bfgs steps    =   0

     enthalpy           new  =    -154.7254303048 Ry

     new trust radius        =       0.0500001764 bohr
     new conv_thr            =       0.0000001000 Ry

     new unit-cell volume =    190.26426 a.u.^3 (    28.19425 Ang^3 )
     density =     15.34324 g/cm^3

CELL_PARAMETERS (angstrom)
   2.947023133   0.000000000   0.000000000
   0.000000000   2.947023133   0.000000000
   0.000000000   0.000000000   3.246336424

ATOMIC_POSITIONS (angstrom)
Au            0.0000000000        0.0000000000        0.0000000000
Cu            1.4735115665        1.4735115665        1.6231682119



     Writing config-only to output data dir /home/bond/Work/Lab4/Problem3/pwscf.save/
     NEW-OLD atomic charge density approx. for the potential
     extrapolated charge   20.82509, renormalised to   22.00000

     total cpu time spent up to now is       18.8 secs

     Self-consistent Calculation

     iteration #  1     ecut=    40.00 Ry     beta= 0.20
     Davidson diagonalization with overlap
     ethr =  1.00E-06,  avg # of iterations =  6.2

     total cpu time spent up to now is       21.6 secs

     total energy              =    -154.55505745 Ry
     estimated scf accuracy    <       0.24126028 Ry

     iteration #  2     ecut=    40.00 Ry     beta= 0.20
     Davidson diagonalization with overlap
     ethr =  1.10E-03,  avg # of iterations =  2.0

     total cpu time spent up to now is       23.1 secs

     total energy              =    -154.73125641 Ry
     estimated scf accuracy    <       0.09198154 Ry

     iteration #  3     ecut=    40.00 Ry     beta= 0.20
     Davidson diagonalization with overlap
     ethr =  4.18E-04,  avg # of iterations =  1.0

     total cpu time spent up to now is       24.3 secs

     total energy              =    -154.73081122 Ry
     estimated scf accuracy    <       0.02263273 Ry

     iteration #  4     ecut=    40.00 Ry     beta= 0.20
     Davidson diagonalization with overlap
     ethr =  1.03E-04,  avg # of iterations =  1.0

     total cpu time spent up to now is       25.5 secs

     total energy              =    -154.72811519 Ry
     estimated scf accuracy    <       0.00670143 Ry

     iteration #  5     ecut=    40.00 Ry     beta= 0.20
     Davidson diagonalization with overlap
     ethr =  3.05E-05,  avg # of iterations =  2.0

     total cpu time spent up to now is       26.9 secs

     total energy              =    -154.73002721 Ry
     estimated scf accuracy    <       0.00037923 Ry

     iteration #  6     ecut=    40.00 Ry     beta= 0.20
     Davidson diagonalization with overlap
     ethr =  1.72E-06,  avg # of iterations =  1.6

     total cpu time spent up to now is       28.2 secs

     total energy              =    -154.72988568 Ry
     estimated scf accuracy    <       0.00052619 Ry

     iteration #  7     ecut=    40.00 Ry     beta= 0.20
     Davidson diagonalization with overlap
     ethr =  1.72E-06,  avg # of iterations =  1.0

     total cpu time spent up to now is       29.4 secs

     total energy              =    -154.72984361 Ry
     estimated scf accuracy    <       0.00011687 Ry

     iteration #  8     ecut=    40.00 Ry     beta= 0.20
     Davidson diagonalization with overlap
     ethr =  5.31E-07,  avg # of iterations =  2.0

     total cpu time spent up to now is       30.8 secs

     total energy              =    -154.72987799 Ry
     estimated scf accuracy    <       0.00002163 Ry

     iteration #  9     ecut=    40.00 Ry     beta= 0.20
     Davidson diagonalization with overlap
     ethr =  9.83E-08,  avg # of iterations =  1.6

     total cpu time spent up to now is       32.1 secs

     End of self-consistent calculation

          k = 0.0000 0.0000 0.0000 (   865 PWs)   bands (ev):

     5.3960   8.8235   8.8833  11.1171  11.1171  11.6190  12.7728  13.1612
    13.6394  13.7697  13.7697  20.5411  23.6790  23.6790  26.8585

          k = 0.0000 0.0000 0.1155 (   853 PWs)   bands (ev):

     5.6546   8.8997   9.0053  11.1219  11.1219  11.6814  12.6814  13.1534
    13.5702  13.5862  13.5862  19.0452  24.1858  24.1858  28.5668

          k = 0.0000 0.0000 0.2310 (   865 PWs)   bands (ev):

     6.3760   9.1012   9.3275  11.1406  11.1406  11.8549  12.4421  13.1228
    13.1734  13.1734  13.3802  16.5116  25.5594  25.5594  30.1004

          k = 0.0000 0.0000 0.3465 (   852 PWs)   bands (ev):

     7.3283   9.3374   9.7265  11.1745  11.1745  12.0883  12.1672  12.7864
    12.7864  13.0602  13.1302  14.3040  27.5206  27.5206  29.6741

          k = 0.0000 0.0000-0.4621 (   844 PWs)   bands (ev):

     7.8535   9.4502   9.9632  11.1954  11.1954  12.0381  12.2278  12.6288
    12.6288  12.9541  12.9839  13.3579  29.4783  29.5586  29.5586

          k = 0.0000 0.1272 0.0000 (   857 PWs)   bands (ev):

     5.7221   8.9594   9.0586  11.0312  11.2042  11.5443  12.7854  13.1150
    13.4380  13.4622  13.6798  21.2544  21.6907  24.2823  27.2100

          k = 0.0000 0.1272 0.1155 (   856 PWs)   bands (ev):

     5.9746   9.0350   9.1767  11.0104  11.1332  11.6595  12.7211  13.1085
    13.1901  13.2848  13.7401  19.6871  22.1472  24.7427  29.0618

          k = 0.0000 0.1272 0.2310 (   860 PWs)   bands (ev):

     6.6753   9.2205   9.4856  10.9715  11.0553  11.8102  12.5538  12.8685
    12.9104  13.0909  13.6629  17.1015  23.3111  26.0161  29.7666

          k = 0.0000 0.1272 0.3465 (   850 PWs)   bands (ev):

     7.5977   9.4361   9.7199  11.0442  11.0896  11.7626  12.3773  12.5991
    12.8573  13.0797  13.4312  14.7956  24.8828  27.8804  28.4726

          k = 0.0000 0.1272-0.4621 (   846 PWs)   bands (ev):

     8.1240   9.6091   9.6102  11.0619  11.3919  11.6713  12.3207  12.4408
    13.0890  13.1542  13.2650  13.4917  26.5542  26.7649  30.0332

          k = 0.0000 0.2545 0.0000 (   869 PWs)   bands (ev):

     6.6184   9.2590   9.5831  10.8063  11.3494  11.4474  12.6372  12.8968
    13.0304  13.1709  13.4297  18.6270  23.0237  25.8852  27.3784

          k = 0.0000 0.2545 0.1155 (   855 PWs)   bands (ev):

     6.8424   9.3063   9.7041  10.7523  11.1006  11.6254  12.6608  12.7859
    12.8264  13.1386  13.6425  19.0024  21.1971  26.2458  29.5353

          k = 0.0000 0.2545 0.2310 (   851 PWs)   bands (ev):

     7.4310   9.3366  10.0806  10.7166  10.8816  11.5040  12.5990  12.6928
    12.8593  13.0722  13.8020  18.2259  20.2258  27.2709  27.6439

          k = 0.0000 0.2545 0.3465 (   857 PWs)   bands (ev):

     8.1322   9.1961  10.3469  10.7895  11.1845  11.2591  12.4881  12.6730
    13.1031  13.1772  13.7504  15.7193  21.6099  25.4624  28.8133

          k = 0.0000 0.2545-0.4621 (   854 PWs)   bands (ev):

     8.5586   8.9746  10.3931  10.8040  11.0051  12.0143  12.2863  12.6487
    13.5034  13.5298  13.7415  13.8845  22.9481  23.8503  30.3289

          k = 0.0000 0.3817 0.0000 (   856 PWs)   bands (ev):

     7.7693   9.6333  10.1863  10.5586  11.1342  11.7791  12.3202  12.4911
    12.7103  13.0908  13.4412  15.9496  25.3461  27.5913  28.1334

          k = 0.0000 0.3817 0.1155 (   856 PWs)   bands (ev):

     7.9267   9.5832  10.0259  10.8895  10.9770  11.5889  12.4220  12.4929
    12.7806  13.3691  13.4028  16.2020  23.0543  27.4780  28.3879

          k = 0.0000 0.3817 0.2310 (   858 PWs)   bands (ev):

     8.2356   9.1957  10.4872  10.7174  11.1541  11.4006  12.5468  12.6223
    13.1336  13.2878  13.7130  16.7009  20.3667  24.9722  29.0731

          k = 0.0000 0.3817 0.3465 (   857 PWs)   bands (ev):

     8.4316   8.8523  10.5512  10.7751  11.4296  11.9668  12.7511  12.8028
    13.1588  13.5246  13.8695  16.1142  19.3107  22.8006  29.9306

          k = 0.0000 0.3817-0.4621 (   862 PWs)   bands (ev):

     8.4870   8.7233  10.5306  10.5974  11.9000  12.2876  12.7576  12.8636
    13.7884  13.8051  14.1839  14.2995  19.7631  21.6355  30.3968

          k = 0.0000-0.5090 0.0000 (   868 PWs)   bands (ev):

     8.3839   9.8473  10.4506  10.4606  11.0398  11.9855  12.1500  12.3551
    12.5982  12.8814  13.9717  14.3705  27.4794  27.8099  28.7270

          k = 0.0000-0.5090 0.1155 (   868 PWs)   bands (ev):

     8.5156   9.6116   9.9833  10.9037  11.3382  11.5641  12.2854  12.4216
    12.9995  13.0613  14.0211  14.4119  24.8409  25.4813  30.5542

          k = 0.0000-0.5090 0.2310 (   862 PWs)   bands (ev):

     8.7024   8.9186  10.5751  10.6428  11.0262  12.1576  12.5824  12.6002
    13.4303  13.4881  14.1705  14.5069  21.7389  23.1306  30.7915

          k = 0.0000-0.5090 0.3465 (   860 PWs)   bands (ev):

     8.4667   8.7534  10.4357  10.6534  11.6122  12.7002  12.7958  13.0011
    13.7490  13.8107  14.3744  14.5514  19.2016  21.4068  30.5336

          k = 0.0000-0.5090-0.4621 (   868 PWs)   bands (ev):

     8.3101   8.7537  10.3599  10.5214  12.1810  12.8232  13.0548  13.2639
    13.8722  13.9217  14.4692  14.4811  18.0728  20.7353  30.4217

          k = 0.1272 0.1272 0.0000 (   862 PWs)   bands (ev):

     6.0433   9.1550   9.1666  10.9073  11.2970  11.4344  12.8315  13.0681
    13.0712  13.2512  13.8015  21.8729  22.1557  22.2658  27.4928

          k = 0.1272 0.1272 0.1155 (   856 PWs)   bands (ev):

     6.2919   9.2315   9.2812  10.8841  11.1177  11.5710  12.7765  12.8101
    13.0736  13.4374  13.6214  20.2292  22.5524  22.7264  29.4196

          k = 0.1272 0.1272 0.2310 (   862 PWs)   bands (ev):

     6.9785   9.4039   9.5785  10.8191  10.9682  11.5314  12.6428  12.7558
    13.0755  13.2249  13.4630  17.6289  23.4912  23.9329  30.9163

          k = 0.1272 0.1272 0.3465 (   856 PWs)   bands (ev):

     7.8853   9.6097   9.6797  10.7310  11.1683  11.4050  12.5197  12.8540
    12.8545  13.2017  13.2833  15.3256  24.8450  25.5384  28.7068

          k = 0.1272 0.1272-0.4621 (   854 PWs)   bands (ev):

     8.4406   9.4930   9.7113  10.6812  11.3439  11.6690  12.4863  12.6545
    12.6903  13.1005  13.8077  13.9036  26.2343  26.8591  26.9426

          k = 0.1272 0.2545 0.0000 (   866 PWs)   bands (ev):

     6.9179   9.4258   9.6743  10.6758  11.1892  11.3802  12.6732  12.7624
    12.9132  13.1313  13.6980  19.0796  23.4805  23.5134  27.6053

          k = 0.1272 0.2545 0.1155 (   862 PWs)   bands (ev):

     7.1444   9.5086   9.7626  10.6295  10.9915  11.3301  12.6885  12.7993
    13.0223  13.1091  13.6198  19.4602  21.5534  23.9196  29.6147

          k = 0.1272 0.2545 0.2310 (   857 PWs)   bands (ev):

     7.7378   9.5640  10.1014  10.5710  10.7765  11.0727  12.7524  12.9174
    12.9922  13.1484  13.5674  18.7460  20.5208  24.7647  28.0541

          k = 0.1272 0.2545 0.3465 (   854 PWs)   bands (ev):

     8.4414   9.3947  10.3102  10.5418  10.8494  11.2516  12.6558  12.7729
    12.9750  13.4258  13.6537  16.3025  21.8811  25.5379  26.2131

          k = 0.1272 0.2545-0.4621 (   850 PWs)   bands (ev):

     8.9570   9.0584  10.3688  10.4819  10.7863  12.0031  12.3983  12.7549
    13.0203  13.1761  14.4232  14.6819  23.2580  23.9456  27.3096

          k = 0.1272 0.3817 0.0000 (   859 PWs)   bands (ev):

     8.0328   9.7491   9.9870  10.4343  11.2384  11.3337  12.5382  12.6973
    12.7287  13.4004  13.4074  16.2790  25.2300  25.6798  27.6804

          k = 0.1272 0.3817 0.1155 (   860 PWs)   bands (ev):

     8.2042   9.7564   9.9077  10.4802  11.0518  11.3458  12.5868  12.6802
    13.0023  13.3767  13.4461  16.5908  23.2546  25.6509  27.8673

          k = 0.1272 0.3817 0.2310 (   853 PWs)   bands (ev):

     8.5223   9.3972  10.3459  10.5311  10.7786  11.4329  12.6440  12.7340
    13.2381  13.5301  13.6116  17.2572  20.5704  25.1029  26.3709

          k = 0.1272 0.3817 0.3465 (   859 PWs)   bands (ev):

     8.6391   9.1631  10.3451  10.5196  11.4164  11.7572  12.6486  12.8294
    13.1385  13.5357  14.2359  16.9278  19.4495  22.9141  27.2343

          k = 0.1272 0.3817-0.4621 (   856 PWs)   bands (ev):

     8.6199   9.1128  10.3275  10.3981  11.8124  12.3185  12.5467  12.8701
    13.2221  13.2932  15.1051  15.4679  20.0330  21.6659  28.0428

          k = 0.1272-0.5090 0.0000 (   856 PWs)   bands (ev):

     8.6758   9.8010   9.9458  10.3274  11.2877  11.5376  12.4791  12.6858
    12.9694  13.0668  14.0703  14.4448  26.8983  27.4523  27.9120

          k = 0.1272-0.5090 0.1155 (   862 PWs)   bands (ev):

     8.8502   9.4958  10.0276  10.3497  11.1325  11.7093  12.5086  12.5726
    13.1999  13.2332  14.2577  14.5794  24.9838  25.5765  27.6112

          k = 0.1272-0.5090 0.2310 (   858 PWs)   bands (ev):

     8.9811   9.0962  10.2969  10.5274  10.7864  12.0904  12.5932  12.6805
    13.3950  13.4038  14.8294  14.9432  22.0048  23.1960  27.8644

          k = 0.1272-0.5090 0.3465 (   858 PWs)   bands (ev):

     8.5923   9.1427  10.2027  10.4766  11.5592  12.5789  12.7060  12.8544
    13.3752  13.3831  15.4507  15.5193  19.4095  21.4197  28.3313

          k = 0.1272-0.5090-0.4621 (   868 PWs)   bands (ev):

     8.4518   9.1362  10.1599  10.3616  12.2371  12.8766  12.9305  12.9439
    13.0620  13.2660  15.8608  15.8692  18.1133  20.7029  28.7290

          k = 0.2545 0.2545 0.0000 (   856 PWs)   bands (ev):

     7.6739   9.5541  10.1772  10.4266  11.0044  11.0087  12.7536  12.7598
    12.9948  13.0560  13.8788  19.6231  20.8621  24.7369  27.5589

          k = 0.2545 0.2545 0.1155 (   857 PWs)   bands (ev):

     7.8976   9.7105  10.1812  10.4015  10.7431  10.8995  12.8695  12.9627
    12.9803  13.1363  13.6941  20.1079  21.0027  22.7317  29.0649

          k = 0.2545 0.2545 0.2310 (   847 PWs)   bands (ev):

     8.4540  10.0460  10.1433  10.3869  10.4733  10.6627  12.9400  12.9670
    13.0860  13.3336  13.6487  19.8582  21.3464  21.6026  28.0965

          k = 0.2545 0.2545 0.3465 (   855 PWs)   bands (ev):

     8.9794   9.9383  10.0534  10.4040  10.4230  11.2346  12.8413  12.8828
    13.0656  13.0880  14.3789  17.4300  22.4692  23.0121  25.6997

          k = 0.2545 0.2545-0.4621 (   848 PWs)   bands (ev):

     9.1455   9.8941  10.0093  10.3473  10.4444  11.9906  12.4863  12.8437
    12.9855  13.0494  15.2211  15.8738  23.7714  23.8641  24.8469

          k = 0.2545 0.3817 0.0000 (   850 PWs)   bands (ev):

     8.4833   9.3922  10.1886  10.5800  10.6429  11.6651  12.7488  12.9893
    13.1169  13.3076  13.7935  16.9955  22.0625  26.4530  26.5482

          k = 0.2545 0.3817 0.1155 (   853 PWs)   bands (ev):

     8.6614   9.5549  10.0824  10.4647  10.5810  11.5618  12.7937  12.9049
    13.2510  13.5993  13.6564  17.4286  22.1847  24.2966  26.6724

          k = 0.2545 0.3817 0.2310 (   854 PWs)   bands (ev):

     8.9577   9.8621  10.0522  10.2224  10.5548  11.4808  12.8086  12.9635
    13.1942  13.3928  14.3930  18.4053  21.1986  23.1280  25.4579

          k = 0.2545 0.3817 0.3465 (   860 PWs)   bands (ev):

     8.9964   9.8053  10.0073  10.2079  11.3009  11.5285  12.7106  13.0037
    13.0832  13.2627  15.2896  18.5404  19.9249  23.2268  24.1241

          k = 0.2545 0.3817-0.4621 (   856 PWs)   bands (ev):

     8.9489   9.8236   9.9282  10.1860  11.5829  12.0959  12.4177  13.0003
    13.0075  13.2019  16.2153  17.0771  20.9190  21.7982  25.3255

          k = 0.2545-0.5090 0.0000 (   846 PWs)   bands (ev):

     8.9928   9.0842  10.0797  10.5204  10.6624  12.2412  12.8881  12.9671
    13.4709  13.5391  14.4047  14.6507  23.5457  24.7103  28.4117

          k = 0.2545-0.5090 0.1155 (   856 PWs)   bands (ev):

     9.0210   9.3611   9.9589  10.4193  10.6317  12.1662  12.8232  12.9103
    13.4171  13.4402  14.9720  15.0196  23.6725  24.6629  25.9917

          k = 0.2545-0.5090 0.2310 (   858 PWs)   bands (ev):

     9.0180   9.7536  10.0213  10.2582  10.5802  12.0865  12.7383  12.9357
    13.3350  13.3713  15.7495  16.0609  22.7289  23.2889  25.0772

          k = 0.2545-0.5090 0.3465 (   862 PWs)   bands (ev):

     8.8924   9.6827  10.0284  10.2023  11.3675  12.1715  12.6668  12.9917
    13.1973  13.3129  16.6646  17.1801  20.1788  21.4987  25.7151

          k = 0.2545-0.5090-0.4621 (   852 PWs)   bands (ev):

     8.8150   9.6795   9.9568  10.1540  12.1858  12.2635  12.3842  13.0051
    13.0823  13.2742  17.7907  17.7998  18.3220  20.6517  26.1323

          k = 0.3817 0.3817 0.0000 (   856 PWs)   bands (ev):

     8.5247   9.1729   9.9777  10.1445  11.7647  12.5146  13.0432  13.1951
    13.2362  13.5492  13.9566  16.9298  20.2458  23.9875  27.5845

          k = 0.3817 0.3817 0.1155 (   846 PWs)   bands (ev):

     8.6368   9.4285   9.9199  10.0393  11.7108  12.1504  12.9374  13.1609
    13.1906  13.7002  14.3122  17.5753  20.3390  24.0249  25.3749

          k = 0.3817 0.3817 0.2310 (   852 PWs)   bands (ev):

     8.8906   9.7626   9.7732  10.1845  11.5725  11.6773  12.9301  13.1489
    13.1614  13.3713  15.3658  19.0302  20.6194  22.6886  24.0840

          k = 0.3817 0.3817 0.3465 (   853 PWs)   bands (ev):

     9.1344   9.5090   9.6180  11.1808  11.4342  11.4637  12.7915  13.0818
    13.1235  13.2659  16.4723  20.1539  20.8225  21.2497  23.3972

          k = 0.3817 0.3817-0.4621 (   868 PWs)   bands (ev):

     9.2370   9.3986   9.5518  11.3793  11.4072  11.8737  12.5179  13.0456
    13.1026  13.2522  17.4276  18.6920  21.7150  22.2871  22.5723

          k = 0.3817-0.5090 0.0000 (   848 PWs)   bands (ev):

     8.4350   9.1577   9.8758   9.9889  12.1829  12.9724  13.0766  13.2079
    13.8411  13.8782  14.8750  14.9256  20.5562  22.5405  28.1360

          k = 0.3817-0.5090 0.1155 (   848 PWs)   bands (ev):

     8.5298   9.4316   9.8001   9.9301  12.0521  12.7726  13.0480  13.1768
    13.4618  13.5084  15.6303  15.7947  20.7508  22.4780  26.5771

          k = 0.3817-0.5090 0.2310 (   854 PWs)   bands (ev):

     8.7692   9.6061   9.7809  10.1842  11.7191  12.2876  12.9607  13.1576
    13.2633  13.3401  16.7434  17.2785  21.3990  22.2155  24.4978

          k = 0.3817-0.5090 0.3465 (   856 PWs)   bands (ev):

     9.0340   9.3888   9.6221  11.1739  11.4315  12.0058  12.8017  13.1375
    13.1636  13.3088  17.9044  18.7929  21.4926  21.6706  22.6798

          k = 0.3817-0.5090-0.4621 (   864 PWs)   bands (ev):

     9.2144   9.2291   9.5539  11.3246  11.8207  11.9351  12.5556  13.1187
    13.1308  13.3005  19.0237  19.8260  19.9360  20.6852  23.8621

          k =-0.5090-0.5090 0.0000 (   848 PWs)   bands (ev):

     8.2383   9.1546   9.8000   9.8000  13.1488  13.1687  13.2637  13.3185
    13.9889  13.9889  15.1210  15.1210  19.0413  21.6621  28.0085

          k =-0.5090-0.5090 0.1155 (   848 PWs)   bands (ev):

     8.3442   9.4225   9.7462   9.7462  13.1374  13.1727  13.2278  13.2278
    13.2564  13.3197  16.2039  16.2039  19.0866  21.5614  27.1270

          k =-0.5090-0.5090 0.2310 (   848 PWs)   bands (ev):

     8.6168   9.6076   9.6076  10.1561  12.4377  12.4377  13.0738  13.1823
    13.2279  13.3227  17.9305  17.9305  19.2763  21.2794  26.1878

          k =-0.5090-0.5090 0.3465 (   848 PWs)   bands (ev):

     8.9184   9.4578   9.4578  11.1147  11.9811  11.9811  12.8781  13.1792
    13.1920  13.3258  19.7787  19.8091  19.8091  20.9308  23.3001

          k =-0.5090-0.5090-0.4621 (   848 PWs)   bands (ev):

     9.0541   9.3929   9.3929  11.7121  11.8367  11.8367  12.6326  13.1508
    13.1960  13.3270  20.5224  20.7646  21.1147  21.1147  21.6460

     the Fermi energy is    15.3548 ev

!    total energy              =    -154.72988174 Ry
     estimated scf accuracy    <       0.00000003 Ry
     smearing contrib. (-TS)   =      -0.00011020 Ry
     internal energy E=F+TS    =    -154.72977153 Ry

     The total energy is F=E-TS. E is the sum of the following terms:
     one-electron contribution =      -5.02494566 Ry
     hartree contribution      =      27.93293289 Ry
     xc contribution           =     -24.52946149 Ry
     ewald contribution        =    -153.10829728 Ry

     convergence has been achieved in   9 iterations

     Forces acting on atoms (cartesian axes, Ry/au):

     atom    1 type  2   force =     0.00000000    0.00000000    0.00000000
     atom    2 type  1   force =     0.00000000    0.00000000    0.00000000

     Total force =     0.000000     Total SCF correction =     0.000000


     Computing stress (Cartesian axis) and pressure

          total   stress  (Ry/bohr**3)                   (kbar)     P=      -24.75
  -0.00017946   0.00000000   0.00000000          -26.40        0.00        0.00
   0.00000000  -0.00017946   0.00000000            0.00      -26.40        0.00
   0.00000000   0.00000000  -0.00014579            0.00        0.00      -21.45

     Energy error            =      4.5E-03 Ry
     Gradient error          =      0.0E+00 Ry/Bohr
     Cell gradient error     =      2.6E+01 kbar

     number of scf cycles    =   2
     number of bfgs steps    =   1

     enthalpy           old  =    -154.7254303048 Ry
     enthalpy           new  =    -154.7298817360 Ry

     CASE: enthalpy          _new < enthalpy          _old

     new trust radius        =       0.0159693585 bohr
     new conv_thr            =       0.0000000010 Ry

     new unit-cell volume =    187.18585 a.u.^3 (    27.73808 Ang^3 )
     density =     15.59557 g/cm^3

CELL_PARAMETERS (angstrom)
   2.929963786   0.000000000   0.000000000
   0.000000000   2.929963786   0.000000000
   0.000000000   0.000000000   3.231111319

ATOMIC_POSITIONS (angstrom)
Au            0.0000000000        0.0000000000        0.0000000000
Cu            1.4649818929        1.4649818929        1.6155556594



     Writing config-only to output data dir /home/bond/Work/Lab4/Problem3/pwscf.save/
     NEW-OLD atomic charge density approx. for the potential
     extrapolated charge   21.63820, renormalised to   22.00000

     total cpu time spent up to now is       36.3 secs

     Self-consistent Calculation

     iteration #  1     ecut=    40.00 Ry     beta= 0.20
     Davidson diagonalization with overlap
     ethr =  1.00E-06,  avg # of iterations =  4.3

     total cpu time spent up to now is       38.6 secs

     total energy              =    -154.70638355 Ry
     estimated scf accuracy    <       0.03446124 Ry

     iteration #  2     ecut=    40.00 Ry     beta= 0.20
     Davidson diagonalization with overlap
     ethr =  1.57E-04,  avg # of iterations =  2.0

     total cpu time spent up to now is       40.2 secs

     total energy              =    -154.73057021 Ry
     estimated scf accuracy    <       0.01583645 Ry

     iteration #  3     ecut=    40.00 Ry     beta= 0.20
     Davidson diagonalization with overlap
     ethr =  7.20E-05,  avg # of iterations =  1.0

     total cpu time spent up to now is       41.4 secs

     total energy              =    -154.73022859 Ry
     estimated scf accuracy    <       0.00454315 Ry

     iteration #  4     ecut=    40.00 Ry     beta= 0.20
     Davidson diagonalization with overlap
     ethr =  2.07E-05,  avg # of iterations =  1.0

     total cpu time spent up to now is       42.6 secs

     total energy              =    -154.72989699 Ry
     estimated scf accuracy    <       0.00124319 Ry

     iteration #  5     ecut=    40.00 Ry     beta= 0.20
     Davidson diagonalization with overlap
     ethr =  5.65E-06,  avg # of iterations =  1.7

     total cpu time spent up to now is       43.8 secs

     total energy              =    -154.73009011 Ry
     estimated scf accuracy    <       0.00000571 Ry

     iteration #  6     ecut=    40.00 Ry     beta= 0.20
     Davidson diagonalization with overlap
     ethr =  2.59E-08,  avg # of iterations =  2.8

     total cpu time spent up to now is       45.5 secs

     total energy              =    -154.73010086 Ry
     estimated scf accuracy    <       0.00002565 Ry

     iteration #  7     ecut=    40.00 Ry     beta= 0.20
     Davidson diagonalization with overlap
     ethr =  2.59E-08,  avg # of iterations =  1.0

     total cpu time spent up to now is       46.7 secs

     total energy              =    -154.73008519 Ry
     estimated scf accuracy    <       0.00002259 Ry

     iteration #  8     ecut=    40.00 Ry     beta= 0.20
     Davidson diagonalization with overlap
     ethr =  2.59E-08,  avg # of iterations =  2.3

     total cpu time spent up to now is       48.3 secs

     total energy              =    -154.73009427 Ry
     estimated scf accuracy    <       0.00001588 Ry

     iteration #  9     ecut=    40.00 Ry     beta= 0.20
     Davidson diagonalization with overlap
     ethr =  2.59E-08,  avg # of iterations =  1.5

     total cpu time spent up to now is       49.5 secs

     total energy              =    -154.73009368 Ry
     estimated scf accuracy    <       0.00000261 Ry

     iteration # 10     ecut=    40.00 Ry     beta= 0.20
     Davidson diagonalization with overlap
     ethr =  1.18E-08,  avg # of iterations =  2.0

     total cpu time spent up to now is       51.0 secs

     total energy              =    -154.73009446 Ry
     estimated scf accuracy    <       0.00000078 Ry

     iteration # 11     ecut=    40.00 Ry     beta= 0.20
     Davidson diagonalization with overlap
     ethr =  3.54E-09,  avg # of iterations =  1.1

     total cpu time spent up to now is       52.2 secs

     total energy              =    -154.73009458 Ry
     estimated scf accuracy    <          4.5E-09 Ry

     iteration # 12     ecut=    40.00 Ry     beta= 0.20
     Davidson diagonalization with overlap
     ethr =  2.04E-11,  avg # of iterations =  2.2

     total cpu time spent up to now is       53.7 secs

     End of self-consistent calculation

          k = 0.0000 0.0000 0.0000 (   865 PWs)   bands (ev):

     5.5974   9.0474   9.1069  11.4022  11.4022  11.9232  13.0819  13.4861
    13.9801  14.1149  14.1149  20.9003  24.1099  24.1099  27.3958

          k = 0.0000 0.0000 0.1161 (   853 PWs)   bands (ev):

     5.8590   9.1255   9.2319  11.4081  11.4081  11.9874  12.9873  13.4778
    13.9088  13.9253  13.9253  19.4073  24.6260  24.6260  29.1217

          k = 0.0000 0.0000 0.2321 (   865 PWs)   bands (ev):

     6.5878   9.3321   9.5622  11.4302  11.4302  12.1662  12.7399  13.4456
    13.4983  13.4983  13.7126  16.8618  26.0222  26.0222  30.6718

          k = 0.0000 0.0000 0.3482 (   852 PWs)   bands (ev):

     7.5468   9.5748   9.9721  11.4691  11.4691  12.4085  12.4556  13.0972
    13.0972  13.3824  13.4530  14.6378  28.0112  28.0112  30.1271

          k = 0.0000 0.0000-0.4642 (   844 PWs)   bands (ev):

     8.0730   9.6908  10.2150  11.4930  11.4930  12.3219  12.5554  12.9332
    12.9332  13.2852  13.2988  13.6758  29.9257  30.0655  30.0655

          k = 0.0000 0.1280 0.0000 (   857 PWs)   bands (ev):

     5.9284   9.1864   9.2875  11.3142  11.4919  11.8469  13.0950  13.4383
    13.7711  13.7946  14.0222  21.6313  22.1170  24.7255  27.7261

          k = 0.0000 0.1280 0.1161 (   856 PWs)   bands (ev):

     6.1837   9.2642   9.4081  11.2937  11.4200  11.9660  13.0286  13.4314
    13.5148  13.6114  14.0840  20.0657  22.5800  25.1936  29.5897

          k = 0.0000 0.1280 0.2321 (   860 PWs)   bands (ev):

     6.8914   9.4547   9.7244  11.2556  11.3418  12.1236  12.8563  13.1805
    13.2252  13.4122  14.0044  17.4653  23.7633  26.4869  30.2563

          k = 0.0000 0.1280 0.3482 (   850 PWs)   bands (ev):

     7.8202   9.6769   9.9673  11.3333  11.3741  12.0714  12.6753  12.9052
    13.1708  13.4000  13.7654  15.1398  25.3552  28.3772  28.9564

          k = 0.0000 0.1280-0.4642 (   846 PWs)   bands (ev):

     8.3478   9.8541   9.8609  11.3537  11.6743  11.9735  12.6183  12.7472
    13.4157  13.4762  13.5967  13.8138  27.0422  27.2469  30.5498

          k = 0.0000 0.2560 0.0000 (   869 PWs)   bands (ev):

     6.8365   9.4943   9.8264  11.0839  11.6477  11.7428  12.9426  13.2083
    13.3486  13.4961  13.7637  19.0302  23.4358  26.3574  27.8718

          k = 0.0000 0.2560 0.1161 (   855 PWs)   bands (ev):

     7.0625   9.5430   9.9498  11.0289  11.3879  11.9324  12.9670  13.0942
    13.1366  13.4626  13.9828  19.4080  21.6094  26.7229  29.9629

          k = 0.0000 0.2560 0.2321 (   851 PWs)   bands (ev):

     7.6555   9.5753  10.3346  10.9929  11.1627  11.8073  12.9025  12.9998
    13.1720  13.3934  14.1471  18.6003  20.6644  27.7618  28.1226

          k = 0.0000 0.2560 0.3482 (   857 PWs)   bands (ev):

     8.3597   9.4348  10.6099  11.0692  11.4754  11.5411  12.7892  12.9801
    13.4240  13.5025  14.0940  16.0735  22.0608  25.9382  29.3236

          k = 0.0000 0.2560-0.4642 (   854 PWs)   bands (ev):

     8.7863   9.2133  10.6581  11.0860  11.2887  12.2973  12.5918  12.9543
    13.8383  13.8677  14.0791  14.2132  23.4069  24.3216  30.8559

          k = 0.0000 0.3840 0.0000 (   856 PWs)   bands (ev):

     7.9986   9.8804  10.4446  10.8298  11.4273  12.0869  12.6140  12.7891
    13.0177  13.4118  13.7771  16.3319  25.7942  28.0529  28.6401

          k = 0.0000 0.3840 0.1161 (   856 PWs)   bands (ev):

     8.1567   9.8294  10.2831  11.1643  11.2632  11.8920  12.7195  12.7921
    13.0903  13.7002  13.7371  16.5845  23.4933  27.9432  28.8975

          k = 0.0000 0.3840 0.2321 (   858 PWs)   bands (ev):

     8.4650   9.4340  10.7548  10.9945  11.4440  11.6844  12.8485  12.9265
    13.4567  13.6173  14.0550  17.0741  20.7986  25.4392  29.5891

          k = 0.0000 0.3840 0.3482 (   857 PWs)   bands (ev):

     8.6594   9.0833  10.8233  11.0545  11.7173  12.2642  13.0576  13.1051
    13.4835  13.8605  14.2162  16.4554  19.7542  23.2645  30.4507

          k = 0.0000 0.3840-0.4642 (   862 PWs)   bands (ev):

     8.7142   8.9513  10.8017  10.8724  12.2023  12.5936  13.0613  13.1703
    14.1319  14.1504  14.5156  14.6161  20.1995  22.1031  30.9155

          k = 0.0000-0.5120 0.0000 (   868 PWs)   bands (ev):

     8.6168  10.1019  10.7188  10.7228  11.3304  12.3039  12.4367  12.6489
    12.9020  13.1914  14.3111  14.7501  27.9457  28.2399  29.2351

          k = 0.0000-0.5120 0.1161 (   868 PWs)   bands (ev):

     8.7488   9.8614  10.2412  11.1887  11.6158  11.8640  12.5773  12.7188
    13.3218  13.3785  14.3598  14.7893  25.2977  25.9395  31.0254

          k = 0.0000-0.5120 0.2321 (   862 PWs)   bands (ev):

     8.9338   9.1543  10.8464  10.9185  11.3111  12.4444  12.8881  12.9039
    13.7606  13.8253  14.5039  14.8753  22.1750  23.5895  31.3288

          k = 0.0000-0.5120 0.3482 (   860 PWs)   bands (ev):

     8.6929   8.9823  10.7047  10.9290  11.9064  13.0019  13.1142  13.3141
    14.0901  14.1570  14.6891  14.8913  19.6292  21.8715  31.0548

          k = 0.0000-0.5120-0.4642 (   868 PWs)   bands (ev):

     8.5330   8.9816  10.6266  10.7939  12.4886  13.1313  13.3970  13.5876
    14.2173  14.2710  14.7637  14.7773  18.5089  21.2061  30.9361

          k = 0.1280 0.1280 0.0000 (   862 PWs)   bands (ev):

     6.2543   9.3861   9.3995  11.1859  11.5896  11.7341  13.1428  13.3861
    13.3934  13.5773  14.1474  22.2629  22.6043  22.6897  27.9892

          k = 0.1280 0.1280 0.1161 (   856 PWs)   bands (ev):

     6.5056   9.4660   9.5151  11.1627  11.4057  11.8761  13.0861  13.1192
    13.3956  13.7691  13.9613  20.6213  23.0016  23.1587  29.9181

          k = 0.1280 0.1280 0.2321 (   862 PWs)   bands (ev):

     7.1991   9.6429   9.8198  11.0976  11.2528  11.8335  12.9484  13.0651
    13.3968  13.5517  13.7955  18.0048  23.9541  24.3843  31.3965

          k = 0.1280 0.1280 0.3482 (   856 PWs)   bands (ev):

     8.1127   9.8542   9.9280  11.0086  11.4544  11.6991  12.8225  13.1680
    13.1718  13.5269  13.6089  15.6826  25.3234  26.0076  29.2161

          k = 0.1280 0.1280-0.4642 (   854 PWs)   bands (ev):

     8.6700   9.7429   9.9588  10.9578  11.6361  11.9562  12.7897  12.9774
    12.9975  13.4167  14.1518  14.2402  26.7207  27.3263  27.4443

          k = 0.1280 0.2560 0.0000 (   866 PWs)   bands (ev):

     7.1402   9.6650   9.9202  10.9481  11.4820  11.6763  12.9765  13.0730
    13.2275  13.4553  14.0403  19.4898  23.9000  23.9742  28.0798

          k = 0.1280 0.2560 0.1161 (   862 PWs)   bands (ev):

     7.3690   9.7500  10.0102  10.9012  11.2764  11.6255  12.9946  13.1105
    13.3396  13.4324  13.9594  19.8755  21.9712  24.3800  30.0865

          k = 0.1280 0.2560 0.2321 (   857 PWs)   bands (ev):

     7.9674   9.8081  10.3562  10.8421  11.0549  11.3590  13.0623  13.2328
    13.3089  13.4728  13.9040  19.1342  20.9608  25.2337  28.5470

          k = 0.1280 0.2560 0.3482 (   854 PWs)   bands (ev):

     8.6752   9.6375  10.5725  10.8139  11.1288  11.5333  12.9646  13.0832
    13.2917  13.7570  13.9913  16.6717  22.3347  26.0103  26.7024

          k = 0.1280 0.2560-0.4642 (   850 PWs)   bands (ev):

     9.1929   9.2992  10.6328  10.7537  11.0635  12.2883  12.7091  13.0645
    13.3426  13.4956  14.7783  15.0322  23.7217  24.4159  27.7910

          k = 0.1280 0.3840 0.0000 (   859 PWs)   bands (ev):

     8.2660   9.9985  10.2431  10.7006  11.5265  11.6240  12.8421  13.0050
    13.0379  13.7328  13.7419  16.6644  25.7142  26.1326  28.1278

          k = 0.1280 0.3840 0.1161 (   860 PWs)   bands (ev):

     8.4388  10.0069  10.1613  10.7485  11.3343  11.6345  12.8909  12.9870
    13.3212  13.7113  13.7793  16.9789  23.6976  26.1285  28.3506

          k = 0.1280 0.3840 0.2321 (   853 PWs)   bands (ev):

     8.7571   9.6400  10.6096  10.8017  11.0559  11.7178  12.9508  13.0414
    13.5676  13.8661  13.9472  17.6435  21.0019  25.5697  26.8608

          k = 0.1280 0.3840 0.3482 (   859 PWs)   bands (ev):

     8.8709   9.4006  10.6110  10.7919  11.7032  12.0469  12.9549  13.1389
    13.4636  13.8712  14.5833  17.2880  19.8936  23.3765  27.7218

          k = 0.1280 0.3840-0.4642 (   856 PWs)   bands (ev):

     8.8498   9.3489  10.5928  10.6681  12.1091  12.6269  12.8415  13.1801
    13.5513  13.6177  15.4625  15.8187  20.4706  22.1300  28.5267

          k = 0.1280-0.5120 0.0000 (   856 PWs)   bands (ev):

     8.9140  10.0551  10.2024  10.5910  11.5743  11.8218  12.7817  12.9945
    13.2927  13.3838  14.4107  14.8231  27.3941  27.9170  28.3863

          k = 0.1280-0.5120 0.1161 (   862 PWs)   bands (ev):

     9.0900   9.7434  10.2858  10.6146  11.4172  11.9946  12.8097  12.8765
    13.5334  13.5568  14.6002  14.9559  25.4454  26.0353  28.1073

          k = 0.1280-0.5120 0.2321 (   858 PWs)   bands (ev):

     9.2179   9.3356  10.5614  10.7964  11.0647  12.3783  12.8985  12.9859
    13.7236  13.7472  15.1772  15.3161  22.4431  23.6530  28.3554

          k = 0.1280-0.5120 0.3482 (   858 PWs)   bands (ev):

     8.8208   9.3797  10.4649  10.7478  11.8507  12.8752  13.0162  13.1646
    13.7099  13.7179  15.8140  15.8669  19.8354  21.8808  28.8213

          k = 0.1280-0.5120-0.4642 (   868 PWs)   bands (ev):

     8.6774   9.3721  10.4208  10.6304  12.5473  13.1861  13.2352  13.2491
    13.4041  13.5897  16.2037  16.2127  18.5485  21.1701  29.2235

          k = 0.2560 0.2560 0.0000 (   856 PWs)   bands (ev):

     7.9044   9.7971  10.4361  10.6905  11.2914  11.2917  13.0630  13.0690
    13.3126  13.3791  14.2265  20.0227  21.3235  25.1754  28.0201

          k = 0.2560 0.2560 0.1161 (   857 PWs)   bands (ev):

     8.1308   9.9568  10.4403  10.6652  11.0197  11.1810  13.1831  13.2784
    13.2977  13.4611  14.0358  20.5164  21.4659  23.1580  29.5539

          k = 0.2560 0.2560 0.2321 (   847 PWs)   bands (ev):

     8.6928  10.3004  10.4028  10.6507  10.7406  10.9371  13.2566  13.2858
    13.4042  13.6641  13.9855  20.2708  21.7744  22.0616  28.6052

          k = 0.2560 0.2560 0.3482 (   855 PWs)   bands (ev):

     9.2219  10.1927  10.3125  10.6704  10.6876  11.5143  13.1588  13.1989
    13.3868  13.4041  14.7321  17.8181  22.9358  23.4609  26.1855

          k = 0.2560 0.2560-0.4642 (   848 PWs)   bands (ev):

     9.3884  10.1478  10.2681  10.6123  10.7096  12.2755  12.8050  13.1600
    13.3030  13.3628  15.5906  16.2435  24.2482  24.3349  25.3044

          k = 0.2560 0.3840 0.0000 (   850 PWs)   bands (ev):

     8.7185   9.6337  10.4462  10.8519  10.9124  11.9585  13.0606  13.3091
    13.4393  13.6379  14.1384  17.3810  22.5272  26.9365  27.0104

          k = 0.2560 0.3840 0.1161 (   853 PWs)   bands (ev):

     8.8985   9.8002  10.3385  10.7299  10.8533  11.8507  13.1072  13.2205
    13.5807  13.9362  13.9951  17.8223  22.6491  24.7403  27.1745

          k = 0.2560 0.3840 0.2321 (   854 PWs)   bands (ev):

     9.1969  10.1139  10.3097  10.4831  10.8241  11.7657  13.1236  13.2785
    13.5240  13.7253  14.7451  18.8122  21.6331  23.5868  25.9356

          k = 0.2560 0.3840 0.3482 (   860 PWs)   bands (ev):

     9.2345  10.0561  10.2663  10.4673  11.5807  11.8134  13.0250  13.3179
    13.4128  13.5882  15.6570  18.9287  20.3690  23.6858  24.5902

          k = 0.2560 0.3840-0.4642 (   856 PWs)   bands (ev):

     9.1856  10.0748  10.1861  10.4444  11.8689  12.3820  12.7347  13.3207
    13.3291  13.5239  16.5953  17.4556  21.3619  22.2529  25.7876

          k = 0.2560-0.5120 0.0000 (   846 PWs)   bands (ev):

     9.2278   9.3254  10.3346  10.7853  10.9376  12.5324  13.2090  13.2858
    13.8026  13.8781  14.7453  15.0234  24.0176  25.2021  28.8926

          k = 0.2560-0.5120 0.1161 (   856 PWs)   bands (ev):

     9.2567   9.6069  10.2117  10.6827  10.9060  12.4566  13.1396  13.2255
    13.7466  13.7845  15.3239  15.3953  24.1448  25.1542  26.4402

          k = 0.2560-0.5120 0.2321 (   858 PWs)   bands (ev):

     9.2540  10.0028  10.2767  10.5223  10.8500  12.3750  13.0519  13.2493
    13.6818  13.6989  16.1339  16.4296  23.1778  23.7449  25.5543

          k = 0.2560-0.5120 0.3482 (   862 PWs)   bands (ev):

     9.1265   9.9304  10.2867  10.4628  11.6495  12.4607  12.9800  13.3052
    13.5421  13.6381  17.0553  17.5576  20.6029  21.9496  26.1852

          k = 0.2560-0.5120-0.4642 (   852 PWs)   bands (ev):

     9.0479   9.9270  10.2157  10.4111  12.4738  12.5546  12.7021  13.3180
    13.4247  13.5981  18.1648  18.1733  18.7554  21.1092  26.6005

          k = 0.3840 0.3840 0.0000 (   856 PWs)   bands (ev):

     8.7506   9.4115  10.2286  10.4000  12.0645  12.8306  13.3569  13.5211
    13.5625  13.8857  14.3061  17.2916  20.7129  24.4765  28.0493

          k = 0.3840 0.3840 0.1161 (   846 PWs)   bands (ev):

     8.8642   9.6721  10.1705  10.2935  12.0078  12.4515  13.2589  13.4855
    13.5172  14.0426  14.6601  17.9496  20.8062  24.5118  25.8232

          k = 0.3840 0.3840 0.2321 (   852 PWs)   bands (ev):

     9.1221  10.0131  10.0230  10.4414  11.8627  11.9644  13.2554  13.4699
    13.4919  13.7033  15.7337  19.4270  21.0866  23.1195  24.5633

          k = 0.3840 0.3840 0.3482 (   853 PWs)   bands (ev):

     9.3716   9.7542   9.8668  11.4541  11.7180  11.7451  13.1162  13.4175
    13.4406  13.5904  16.8573  20.5765  21.2413  21.7000  23.8675

          k = 0.3840 0.3840-0.4642 (   868 PWs)   bands (ev):

     9.4796   9.6386   9.8002  11.6607  11.6852  12.1552  12.8441  13.3818
    13.4179  13.5757  17.8255  19.0928  22.1562  22.7184  23.0521

          k = 0.3840-0.5120 0.0000 (   848 PWs)   bands (ev):

     8.6561   9.3963  10.1240  10.2397  12.4977  13.2832  13.4100  13.5327
    14.1861  14.2258  15.2031  15.2783  21.0135  23.0310  28.5947

          k = 0.3840-0.5120 0.1161 (   848 PWs)   bands (ev):

     8.7525   9.6750  10.0478  10.1807  12.3598  13.0777  13.3784  13.5002
    13.7920  13.8537  15.9986  16.1477  21.2080  22.9625  27.0259

          k = 0.3840-0.5120 0.2321 (   854 PWs)   bands (ev):

     8.9964   9.8519  10.0310  10.4408  12.0117  12.5815  13.2887  13.4781
    13.6110  13.6663  17.1339  17.6576  21.8580  22.6791  24.9487

          k = 0.3840-0.5120 0.3482 (   856 PWs)   bands (ev):

     9.2669   9.6315   9.8715  11.4475  11.7136  12.2926  13.1287  13.4551
    13.5112  13.6336  18.3138  19.1924  21.9321  22.1077  23.1345

          k = 0.3840-0.5120-0.4642 (   864 PWs)   bands (ev):

     9.4555   9.4646   9.8029  11.6024  12.1009  12.2200  12.8846  13.4346
    13.4781  13.6250  19.4593  20.2244  20.3356  21.1299  24.3424

          k =-0.5120-0.5120 0.0000 (   848 PWs)   bands (ev):

     8.4543   9.3920  10.0459  10.0459  13.4860  13.5243  13.5904  13.6433
    14.3393  14.3393  15.4339  15.4339  19.5028  22.1560  28.4574

          k =-0.5120-0.5120 0.1161 (   848 PWs)   bands (ev):

     8.5622   9.6646   9.9920   9.9920  13.4743  13.5284  13.5469  13.5469
    13.5820  13.6446  16.5509  16.5509  19.5474  22.0488  27.5789

          k =-0.5120-0.5120 0.2321 (   848 PWs)   bands (ev):

     8.8396   9.8532   9.8532  10.4114  12.7362  12.7362  13.4095  13.5382
    13.5507  13.6477  18.3058  18.3058  19.7356  21.7482  26.1474

          k =-0.5120-0.5120 0.3482 (   848 PWs)   bands (ev):

     9.1468   9.7030   9.7030  11.3866  12.2679  12.2679  13.2111  13.4980
    13.5482  13.6508  20.2068  20.2068  20.2397  21.3775  23.7510

          k =-0.5120-0.5120-0.4642 (   848 PWs)   bands (ev):

     9.2850   9.6379   9.6379  11.9900  12.1196  12.1196  12.9665  13.4677
    13.5523  13.6520  21.0095  21.2017  21.5202  21.5202  22.0580

     the Fermi energy is    15.7164 ev

!    total energy              =    -154.73009458 Ry
     estimated scf accuracy    <          4.8E-10 Ry
     smearing contrib. (-TS)   =      -0.00013024 Ry
     internal energy E=F+TS    =    -154.72996434 Ry

     The total energy is F=E-TS. E is the sum of the following terms:
     one-electron contribution =      -3.81026326 Ry
     hartree contribution      =      27.57616377 Ry
     xc contribution           =     -24.55301677 Ry
     ewald contribution        =    -153.94284808 Ry

     convergence has been achieved in  12 iterations

     Forces acting on atoms (cartesian axes, Ry/au):

     atom    1 type  2   force =     0.00000000    0.00000000    0.00000000
     atom    2 type  1   force =     0.00000000    0.00000000    0.00000000

     Total force =     0.000000     Total SCF correction =     0.000000


     Computing stress (Cartesian axis) and pressure

          total   stress  (Ry/bohr**3)                   (kbar)     P=        4.57
   0.00002253   0.00000000   0.00000000            3.31        0.00        0.00
   0.00000000   0.00002253   0.00000000            0.00        3.31        0.00
   0.00000000   0.00000000   0.00004804            0.00        0.00        7.07

     Energy error            =      2.1E-04 Ry
     Gradient error          =      0.0E+00 Ry/Bohr
     Cell gradient error     =      7.1E+00 kbar

     number of scf cycles    =   3
     number of bfgs steps    =   2

     enthalpy           old  =    -154.7298817360 Ry
     enthalpy           new  =    -154.7300945813 Ry

     CASE: enthalpy          _new < enthalpy          _old

     new trust radius        =       0.0031260342 bohr
     new conv_thr            =       0.0000000010 Ry

     new unit-cell volume =    187.64366 a.u.^3 (    27.80592 Ang^3 )
     density =     15.55752 g/cm^3

CELL_PARAMETERS (angstrom)
   2.931870331   0.000000000   0.000000000
   0.000000000   2.931870331   0.000000000
   0.000000000   0.000000000   3.234802617

ATOMIC_POSITIONS (angstrom)
Au            0.0000000000        0.0000000000        0.0000000000
Cu            1.4659351654        1.4659351654        1.6174013085



     Writing config-only to output data dir /home/bond/Work/Lab4/Problem3/pwscf.save/
     NEW-OLD atomic charge density approx. for the potential
     extrapolated charge   22.05367, renormalised to   22.00000

     total cpu time spent up to now is       58.0 secs

     Self-consistent Calculation

     iteration #  1     ecut=    40.00 Ry     beta= 0.20
     Davidson diagonalization with overlap
     ethr =  1.00E-06,  avg # of iterations =  2.5

     total cpu time spent up to now is       59.7 secs

     total energy              =    -154.72947354 Ry
     estimated scf accuracy    <       0.00095252 Ry

     iteration #  2     ecut=    40.00 Ry     beta= 0.20
     Davidson diagonalization with overlap
     ethr =  4.33E-06,  avg # of iterations =  2.0

     total cpu time spent up to now is       61.2 secs

     total energy              =    -154.73012313 Ry
     estimated scf accuracy    <       0.00044983 Ry

     iteration #  3     ecut=    40.00 Ry     beta= 0.20
     Davidson diagonalization with overlap
     ethr =  2.04E-06,  avg # of iterations =  1.0

     total cpu time spent up to now is       62.4 secs

     total energy              =    -154.73010818 Ry
     estimated scf accuracy    <       0.00014280 Ry

     iteration #  4     ecut=    40.00 Ry     beta= 0.20
     Davidson diagonalization with overlap
     ethr =  6.49E-07,  avg # of iterations =  1.0

     total cpu time spent up to now is       63.6 secs

     total energy              =    -154.73010232 Ry
     estimated scf accuracy    <       0.00003812 Ry

     iteration #  5     ecut=    40.00 Ry     beta= 0.20
     Davidson diagonalization with overlap
     ethr =  1.73E-07,  avg # of iterations =  1.1

     total cpu time spent up to now is       64.9 secs

     total energy              =    -154.73010276 Ry
     estimated scf accuracy    <       0.00000397 Ry

     iteration #  6     ecut=    40.00 Ry     beta= 0.20
     Davidson diagonalization with overlap
     ethr =  1.80E-08,  avg # of iterations =  2.0

     total cpu time spent up to now is       66.4 secs

     total energy              =    -154.73010639 Ry
     estimated scf accuracy    <       0.00000361 Ry

     iteration #  7     ecut=    40.00 Ry     beta= 0.20
     Davidson diagonalization with overlap
     ethr =  1.64E-08,  avg # of iterations =  1.0

     total cpu time spent up to now is       67.6 secs

     total energy              =    -154.73010476 Ry
     estimated scf accuracy    <       0.00000776 Ry

     iteration #  8     ecut=    40.00 Ry     beta= 0.20
     Davidson diagonalization with overlap
     ethr =  1.64E-08,  avg # of iterations =  1.0

     total cpu time spent up to now is       68.8 secs

     total energy              =    -154.73010401 Ry
     estimated scf accuracy    <       0.00000221 Ry

     iteration #  9     ecut=    40.00 Ry     beta= 0.20
     Davidson diagonalization with overlap
     ethr =  1.01E-08,  avg # of iterations =  2.0

     total cpu time spent up to now is       70.1 secs

     total energy              =    -154.73010455 Ry
     estimated scf accuracy    <       0.00000006 Ry

     iteration # 10     ecut=    40.00 Ry     beta= 0.20
     Davidson diagonalization with overlap
     ethr =  2.80E-10,  avg # of iterations =  1.3

     total cpu time spent up to now is       71.4 secs

     total energy              =    -154.73010452 Ry
     estimated scf accuracy    <       0.00000009 Ry

     iteration # 11     ecut=    40.00 Ry     beta= 0.20
     Davidson diagonalization with overlap
     ethr =  2.80E-10,  avg # of iterations =  2.0

     total cpu time spent up to now is       72.7 secs

     End of self-consistent calculation

          k = 0.0000 0.0000 0.0000 (   865 PWs)   bands (ev):

     5.5669   9.0132   9.0729  11.3587  11.3587  11.8800  13.0335  13.4375
    13.9281  14.0630  14.0630  20.8333  24.0529  24.0529  27.3041

          k = 0.0000 0.0000 0.1159 (   853 PWs)   bands (ev):

     5.8277   9.0908   9.1971  11.3647  11.3647  11.9438  12.9395  13.4290
    13.8573  13.8745  13.8745  19.3416  24.5669  24.5669  29.0287

          k = 0.0000 0.0000 0.2319 (   865 PWs)   bands (ev):

     6.5547   9.2962   9.5256  11.3871  11.3871  12.1216  12.6937  13.3962
    13.4500  13.4500  13.6623  16.8001  25.9584  25.9584  30.5937

          k = 0.0000 0.0000 0.3478 (   852 PWs)   bands (ev):

     7.5118   9.5373   9.9331  11.4261  11.4261  12.3620  12.4113  13.0510
    13.0510  13.3317  13.4046  14.5807  27.9417  27.9417  30.0630

          k = 0.0000 0.0000-0.4637 (   844 PWs)   bands (ev):

     8.0374   9.6526  10.1748  11.4500  11.4500  12.2786  12.5075  12.8879
    12.8879  13.2294  13.2519  13.6253  29.8625  29.9925  29.9926

          k = 0.0000 0.1279 0.0000 (   857 PWs)   bands (ev):

     5.8973   9.1518   9.2529  11.2708  11.4481  11.8038  13.0468  13.3900
    13.7204  13.7439  13.9707  21.5624  22.0591  24.6666  27.6365

          k = 0.0000 0.1279 0.1159 (   856 PWs)   bands (ev):

     6.1519   9.2290   9.3729  11.2505  11.3769  11.9217  12.9808  13.3829
    13.4660  13.5618  14.0320  19.9984  22.5207  25.1331  29.4979

          k = 0.0000 0.1279 0.2319 (   860 PWs)   bands (ev):

     6.8579   9.4184   9.6874  11.2128  11.2996  12.0781  12.8095  13.1340
    13.1775  13.3632  13.9527  17.4026  23.7000  26.4221  30.1861

          k = 0.0000 0.1279 0.3478 (   850 PWs)   bands (ev):

     7.7849   9.6392   9.9285  11.2913  11.3314  12.0265  12.6297  12.8583
    13.1241  13.3502  13.7151  15.0825  25.2877  28.3071  28.8851

          k = 0.0000 0.1279-0.4637 (   846 PWs)   bands (ev):

     8.3118   9.8154   9.8221  11.3116  11.6317  11.9294  12.5730  12.6989
    13.3668  13.4280  13.5433  13.7631  26.9720  27.1760  30.4758

          k = 0.0000 0.2558 0.0000 (   869 PWs)   bands (ev):

     6.8040   9.4586   9.7903  11.0403  11.6046  11.6979  12.8960  13.1601
    13.3005  13.4471  13.7134  18.9746  23.3629  26.2943  27.7855

          k = 0.0000 0.2558 0.1159 (   855 PWs)   bands (ev):

     7.0294   9.5069   9.9132  10.9858  11.3457  11.8868  12.9200  13.0468
    13.0901  13.4138  13.9312  19.3514  21.5382  26.6587  29.8839

          k = 0.0000 0.2558 0.2319 (   851 PWs)   bands (ev):

     7.6211   9.5386  10.2960  10.9505  11.1217  11.7628  12.8559  12.9524
    13.1251  13.3449  14.0946  18.5382  20.6008  27.6945  28.0487

          k = 0.0000 0.2558 0.3478 (   857 PWs)   bands (ev):

     8.3243   9.3982  10.5694  11.0288  11.4332  11.4972  12.7425  12.9327
    13.3750  13.4535  14.0418  16.0159  21.9952  25.8658  29.2523

          k = 0.0000 0.2558-0.4637 (   854 PWs)   bands (ev):

     8.7504   9.1771  10.6171  11.0456  11.2474  12.2538  12.5424  12.9072
    13.7878  13.8165  14.0260  14.1624  23.3398  24.2506  30.7807

          k = 0.0000 0.3837 0.0000 (   856 PWs)   bands (ev):

     7.9648   9.8432  10.4068  10.7862  11.3843  12.0403  12.5696  12.7429
    12.9716  13.3634  13.7272  16.2784  25.7168  27.9723  28.5722

          k = 0.0000 0.3837 0.1159 (   856 PWs)   bands (ev):

     8.1223   9.7918  10.2447  11.1220  11.2212  11.8468  12.6741  12.7459
[...]

     total energy              =    -154.73004589 Ry
     estimated scf accuracy    <       0.00000003 Ry

     iteration #  9     ecut=    40.00 Ry     beta= 0.20
     Davidson diagonalization with overlap
     ethr =  1.48E-10,  avg # of iterations =  2.0

     total cpu time spent up to now is      271.9 secs

     total energy              =    -154.73004589 Ry
     estimated scf accuracy    <       0.00000008 Ry

     iteration # 10     ecut=    40.00 Ry     beta= 0.20
     Davidson diagonalization with overlap
     ethr =  1.48E-10,  avg # of iterations =  2.0

     total cpu time spent up to now is      274.7 secs

     total energy              =    -154.73004590 Ry
     estimated scf accuracy    <       0.00000002 Ry

     iteration # 11     ecut=    40.00 Ry     beta= 0.20
     Davidson diagonalization with overlap
     ethr =  7.04E-11,  avg # of iterations =  1.5

     total cpu time spent up to now is      277.2 secs

     End of self-consistent calculation

          k = 0.0000 0.0000 0.0000 (   813 PWs)   bands (ev):

     5.5591   8.9976   9.0600  11.3437  11.3437  11.9211  12.9929  13.4352
    13.9092  14.0569  14.0569  20.5916  24.1836  24.1836  27.0888

          k = 0.0000 0.0000 0.1150 (   801 PWs)   bands (ev):

     5.8150   9.0723   9.1797  11.3542  11.3542  11.9828  12.9011  13.4216
    13.8404  13.8731  13.8731  19.1308  24.6868  24.6868  28.8247

          k = 0.0000 0.0000 0.2300 (   792 PWs)   bands (ev):

     6.5285   9.2697   9.4964  11.3890  11.3890  12.1548  12.6618  13.3748
    13.4551  13.4551  13.6516  16.6302  26.0533  26.0533  30.6654

          k = 0.0000 0.0000 0.3450 (   820 PWs)   bands (ev):

     7.4688   9.5001   9.8911  11.4435  11.4435  12.3871  12.3887  13.0563
    13.0563  13.2851  13.4023  14.4525  28.0083  28.0083  30.1264

          k = 0.0000 0.0000-0.4600 (   820 PWs)   bands (ev):

     7.9856   9.6096  10.1278  11.4756  11.4756  12.2613  12.5273  12.8909
    12.8909  13.1148  13.2551  13.5711  29.9274  30.0408  30.0408

          k = 0.0000 0.1284 0.0000 (   809 PWs)   bands (ev):

     5.8924   9.1374   9.2442  11.2495  11.4337  11.8407  13.0105  13.3881
    13.7042  13.7260  13.9645  21.3365  22.1618  24.7974  27.4064

          k = 0.0000 0.1284 0.1150 (   801 PWs)   bands (ev):

     6.1421   9.2117   9.3599  11.2338  11.3738  11.9502  12.9456  13.3767
    13.4607  13.5476  14.0198  19.8036  22.6158  25.2546  29.2502

          k = 0.0000 0.1284 0.2300 (   806 PWs)   bands (ev):

     6.8351   9.3943   9.6619  11.2070  11.3092  12.1019  12.7801  13.1366
    13.1656  13.3445  13.9413  17.2518  23.7757  26.5213  30.2332

          k = 0.0000 0.1284 0.3450 (   810 PWs)   bands (ev):

     7.7469   9.6076   9.8955  11.3124  11.3276  12.0486  12.6099  12.8353
    13.1267  13.3158  13.7084  14.9781  25.3424  28.3797  28.9008

          k = 0.0000 0.1284-0.4600 (   814 PWs)   bands (ev):

     8.2654   9.7764   9.7984  11.3393  11.6237  11.9489  12.5586  12.6501
    13.3651  13.4271  13.4792  13.7173  27.0191  27.1936  30.5315

          k = 0.0000 0.2568 0.0000 (   817 PWs)   bands (ev):

     6.8059   9.4465   9.7939  11.0028  11.6305  11.6854  12.8776  13.1307
    13.2912  13.4407  13.7070  19.0567  23.1598  26.4274  27.5532

          k = 0.0000 0.2568 0.1150 (   806 PWs)   bands (ev):

     7.0261   9.4914   9.9139  10.9540  11.3590  11.8917  12.8964  13.0217
    13.0884  13.4071  13.9174  19.4227  21.3658  26.7849  29.6514

          k = 0.0000 0.2568 0.2300 (   805 PWs)   bands (ev):

     7.6053   9.5196  10.2838  10.9284  11.1400  11.7778  12.8323  12.9244
    13.1225  13.3344  14.0778  18.4245  20.6359  27.8032  28.0028

          k = 0.0000 0.2568 0.3450 (   800 PWs)   bands (ev):

     8.2979   9.3812  10.5464  11.0538  11.4546  11.4649  12.7114  12.9045
    13.3576  13.4468  14.0268  15.9322  22.0259  25.8415  29.3390

          k = 0.0000 0.2568-0.4600 (   804 PWs)   bands (ev):

     8.7159   9.1675  10.5909  11.0769  11.2671  12.2319  12.4728  12.8802
    13.7787  13.8035  13.9805  14.1325  23.3654  24.2386  30.8438

          k = 0.0000 0.3852 0.0000 (   811 PWs)   bands (ev):

     7.9722   9.8362  10.4216  10.7314  11.3984  12.0304  12.5602  12.7123
    12.9695  13.3559  13.7325  16.3438  25.5274  27.7576  28.7117

          k = 0.0000 0.3852 0.1150 (   808 PWs)   bands (ev):

     8.1223   9.7759  10.2433  11.0984  11.2358  11.8487  12.6568  12.7189
    13.0383  13.6364  13.6916  16.5861  23.2567  27.7497  28.9622

          k = 0.0000 0.3852 0.2300 (   803 PWs)   bands (ev):

     8.4165   9.3802  10.7024  10.9716  11.4189  11.6295  12.7803  12.8487
    13.3964  13.5691  13.9839  17.0453  20.6149  25.2813  29.6371

          k = 0.0000 0.3852 0.3450 (   800 PWs)   bands (ev):

     8.6093   9.0294  10.8046  11.0410  11.6373  12.1979  12.9775  13.0326
    13.4347  13.7936  14.1430  16.3605  19.6640  23.1404  30.4821

          k = 0.0000 0.3852-0.4600 (   800 PWs)   bands (ev):

     8.6726   8.8902  10.7804  10.8670  12.1318  12.4885  12.9771  13.1145
    14.0578  14.0816  14.4281  14.5420  20.1333  21.9918  30.9400

          k = 0.0000-0.5136 0.0000 (   796 PWs)   bands (ev):

     8.5901  10.0648  10.6135  10.6973  11.2969  12.2480  12.3868  12.5736
    12.8573  13.1358  14.2811  14.7521  27.6676  27.9801  29.0029

          k = 0.0000-0.5136 0.1150 (   796 PWs)   bands (ev):

     8.7117   9.7996  10.2044  11.1578  11.5584  11.8263  12.5156  12.6449
    13.2624  13.3189  14.3259  14.7857  25.0605  25.7277  30.9953

          k = 0.0000-0.5136 0.2300 (   808 PWs)   bands (ev):

     8.8813   9.1023  10.7947  10.8922  11.2907  12.3967  12.8202  12.8245
    13.6930  13.7571  14.4568  14.8554  21.9854  23.4186  31.4271

          k = 0.0000-0.5136 0.3450 (   806 PWs)   bands (ev):

     8.6490   8.9251  10.6820  10.9205  11.8073  12.9248  13.0660  13.2599
    14.0154  14.0853  14.6245  14.8440  19.4964  21.7322  31.0975

          k = 0.0000-0.5136-0.4600 (   792 PWs)   bands (ev):

     8.4921   8.9238  10.6051  10.7897  12.3531  13.0437  13.3693  13.5416
    14.1399  14.1985  14.6910  14.7051  18.4153  21.0797  30.9775

          k = 0.1284 0.1284 0.0000 (   812 PWs)   bands (ev):

     6.2208   9.3447   9.3529  11.1221  11.5234  11.7227  13.0597  13.3154
    13.3473  13.5149  14.0887  21.9765  22.6379  22.7387  27.6704

          k = 0.1284 0.1284 0.1150 (   807 PWs)   bands (ev):

     6.4666   9.4167   9.4681  11.1037  11.3614  11.8455  13.0052  13.0625
    13.3443  13.6955  13.9082  20.3675  23.0343  23.1950  29.5554

          k = 0.1284 0.1284 0.2300 (   805 PWs)   bands (ev):

     7.1459   9.5859   9.7589  11.0510  11.2172  11.8018  12.8744  13.0103
    13.3344  13.5069  13.7183  17.7999  23.9746  24.3924  31.3389

          k = 0.1284 0.1284 0.3450 (   807 PWs)   bands (ev):

     8.0442   9.7867   9.8648  10.9767  11.4145  11.6631  12.7590  13.0841
    13.1246  13.4646  13.5332  15.5359  25.3243  25.9849  29.1434

          k = 0.1284 0.1284-0.4600 (   806 PWs)   bands (ev):

     8.5926   9.6888   9.8850  10.9336  11.6073  11.9072  12.7337  12.8435
    12.9511  13.3425  14.0641  14.1632  26.7064  27.2733  27.4006

          k = 0.1284 0.2568 0.0000 (   802 PWs)   bands (ev):

     7.1126   9.6241   9.8841  10.8722  11.4597  11.6024  12.9086  13.0098
    13.1750  13.4033  13.9805  19.5137  23.6272  24.0043  27.7835

          k = 0.1284 0.2568 0.1150 (   803 PWs)   bands (ev):

     7.3355   9.7026   9.9732  10.8303  11.2437  11.5726  12.9303  13.0485
    13.2739  13.3807  13.9021  19.8903  21.7312  24.4095  29.7749

          k = 0.1284 0.2568 0.2300 (   801 PWs)   bands (ev):

     7.9204   9.7550  10.3062  10.7825  11.0248  11.3223  12.9880  13.1665
    13.2443  13.4250  13.8385  18.9497  20.9442  25.2508  28.4190

          k = 0.1284 0.2568 0.3450 (   803 PWs)   bands (ev):

     8.6189   9.5852  10.5143  10.7838  11.1033  11.4643  12.8876  13.0170
    13.2195  13.6850  13.9318  16.5332  22.3061  25.9324  26.6837

          k = 0.1284 0.2568-0.4600 (   800 PWs)   bands (ev):

     9.1271   9.2565  10.5682  10.7347  11.0371  12.2300  12.5881  12.9976
    13.2728  13.4229  14.6859  14.9555  23.6872  24.3390  27.7553

          k = 0.1284 0.3852 0.0000 (   806 PWs)   bands (ev):

     8.2440   9.9618  10.2079  10.6069  11.4987  11.5505  12.7924  12.9423
    12.9947  13.6724  13.6976  16.6744  25.7294  25.8679  27.8873

          k = 0.1284 0.3852 0.1150 (   805 PWs)   bands (ev):

     8.4083   9.9536  10.1254  10.6835  11.2868  11.5918  12.8307  12.9248
    13.2685  13.6638  13.7234  16.9778  23.4695  26.1477  28.1528

          k = 0.1284 0.3852 0.2300 (   804 PWs)   bands (ev):

     8.7118   9.5876  10.5658  10.7555  11.0198  11.6773  12.8795  12.9711
    13.5219  13.8046  13.8841  17.6163  20.8152  25.4200  26.8789

          k = 0.1284 0.3852 0.3450 (   801 PWs)   bands (ev):

     8.8260   9.3471  10.5806  10.7722  11.6273  11.9915  12.8788  13.0606
    13.4127  13.8046  14.5138  17.1896  19.8086  23.2570  27.7297

          k = 0.1284 0.3852-0.4600 (   802 PWs)   bands (ev):

     8.8098   9.2923  10.5617  10.6570  12.0561  12.5044  12.7775  13.1012
    13.4892  13.5582  15.3685  15.7411  20.4099  22.0242  28.5101

          k = 0.1284-0.5136 0.0000 (   810 PWs)   bands (ev):

     8.8956  10.0218  10.1615  10.4897  11.5031  11.7862  12.7404  12.9539
    13.2291  13.3251  14.3827  14.8233  27.3791  27.8685  28.1089

          k = 0.1284-0.5136 0.1150 (   796 PWs)   bands (ev):

     9.0602   9.6902  10.2463  10.5529  11.3616  11.9511  12.7564  12.8177
    13.4826  13.5017  14.5632  14.9456  25.2302  25.8247  28.1454

          k = 0.1284-0.5136 0.2300 (   804 PWs)   bands (ev):

     9.1668   9.2873  10.5213  10.7467  11.0347  12.3307  12.8270  12.9135
    13.6731  13.7031  15.1205  15.2838  22.2538  23.4847  28.3876

          k = 0.1284-0.5136 0.3450 (   806 PWs)   bands (ev):

     8.7777   9.3270  10.4313  10.7336  11.7617  12.8166  12.9457  13.0849
    13.6587  13.6721  15.7604  15.7974  19.7002  21.7447  28.8401

          k = 0.1284-0.5136-0.4600 (   800 PWs)   bands (ev):

     8.6376   9.3191  10.3890  10.6218  12.4155  13.1016  13.1651  13.1813
    13.3747  13.5432  16.1300  16.1393  18.4554  21.0473  29.2269

          k = 0.2568 0.2568 0.0000 (   800 PWs)   bands (ev):

     7.8824   9.7652  10.3985  10.6154  11.2013  11.2642  13.0076  13.0168
    13.2454  13.3437  14.1659  20.0466  21.3360  24.9092  27.7832

          k = 0.2568 0.2568 0.1150 (   801 PWs)   bands (ev):

     8.1024   9.9193  10.4011  10.5961  10.9534  11.1467  13.1197  13.2187
    13.2310  13.4205  13.9812  20.5276  21.4639  22.9387  29.4418

          k = 0.2568 0.2568 0.2300 (   805 PWs)   bands (ev):

     8.6511  10.2475  10.3628  10.5930  10.6860  10.9125  13.1922  13.2161
    13.3314  13.6162  13.9279  20.0746  21.7600  22.0764  28.4842

          k = 0.2568 0.2568 0.3450 (   807 PWs)   bands (ev):

     9.1779  10.1372  10.2806  10.6325  10.6428  11.4473  13.0669  13.1405
    13.3230  13.3368  14.6632  17.6769  22.9348  23.4203  26.1141

          k = 0.2568 0.2568-0.4600 (   804 PWs)   bands (ev):

     9.3522  10.0857  10.2410  10.5853  10.6541  12.2207  12.6709  13.1072
    13.2480  13.2805  15.4883  16.1603  24.2357  24.2900  25.2174

          k = 0.2568 0.3852 0.0000 (   797 PWs)   bands (ev):

     8.6967   9.6041  10.3593  10.8154  10.8266  11.9358  13.0197  13.2707
    13.3774  13.5935  14.0767  17.3898  22.5426  26.7507  26.9277

          k = 0.2568 0.3852 0.1150 (   801 PWs)   bands (ev):

     8.8679   9.7673  10.2625  10.6616  10.8119  11.8247  13.0574  13.1669
    13.5386  13.8795  13.9389  17.8186  22.6411  24.5364  27.1833

          k = 0.2568 0.3852 0.2300 (   803 PWs)   bands (ev):

     9.1520  10.0573  10.2676  10.4304  10.7839  11.7334  13.0563  13.2144
    13.4779  13.6775  14.6796  18.7893  21.4493  23.5884  25.8041

          k = 0.2568 0.3852 0.3450 (   800 PWs)   bands (ev):

     9.1933  10.0029  10.2361  10.4276  11.5092  11.7750  12.9398  13.2455
    13.3621  13.5356  15.5824  18.8130  20.3048  23.5908  24.5707

          k = 0.2568 0.3852-0.4600 (   808 PWs)   bands (ev):

     9.1497  10.0202  10.1630  10.4044  11.8272  12.3218  12.6098  13.2438
    13.2795  13.4709  16.4913  17.3721  21.3135  22.1690  25.7251

          k = 0.2568-0.5136 0.0000 (   792 PWs)   bands (ev):

     9.1865   9.3156  10.2398  10.7051  10.9004  12.4945  13.1785  13.2505
    13.7401  13.8161  14.7255  15.0201  24.0409  25.2268  28.6795

          k = 0.2568-0.5136 0.1150 (   796 PWs)   bands (ev):

     9.2118   9.5877  10.1302  10.6132  10.8680  12.4185  13.0949  13.1786
    13.6987  13.7440  15.2858  15.3737  24.1396  25.1511  26.2598

          k = 0.2568-0.5136 0.2300 (   796 PWs)   bands (ev):

     9.2048   9.9439  10.2314  10.4777  10.8102  12.3324  12.9861  13.1873
    13.6517  13.6544  16.0957  16.3734  23.0031  23.6019  25.5571

          k = 0.2568-0.5136 0.3450 (   804 PWs)   bands (ev):

     9.0844   9.8780  10.2538  10.4271  11.5774  12.4103  12.8946  13.2327
    13.5087  13.5912  17.0047  17.4903  20.4655  21.8279  26.1686

          k = 0.2568-0.5136-0.4600 (   808 PWs)   bands (ev):

     9.0108   9.8743  10.1959  10.3692  12.4091  12.4998  12.5816  13.2410
    13.3914  13.5506  18.0933  18.1007  18.6642  20.9998  26.5563

          k = 0.3852 0.3852 0.0000 (   782 PWs)   bands (ev):

     8.7101   9.3948  10.1435  10.3093  12.0387  12.8244  13.3227  13.4730
    13.5310  13.8227  14.2437  17.3019  20.7249  24.4977  27.7957

          k = 0.3852 0.3852 0.1150 (   798 PWs)   bands (ev):

     8.8190   9.6483  10.0930  10.2127  11.9805  12.4354  13.2203  13.4464
    13.4691  13.9906  14.6024  17.9418  20.8149  24.5262  25.6045

          k = 0.3852 0.3852 0.2300 (   799 PWs)   bands (ev):

     9.0696   9.9545   9.9648  10.3952  11.8307  11.9402  13.2021  13.4173
    13.4450  13.6577  15.6701  19.3922  21.0786  22.9559  24.5389

          k = 0.3852 0.3852 0.3450 (   802 PWs)   bands (ev):

     9.3202   9.7057   9.8281  11.3865  11.6796  11.7140  13.0368  13.3739
    13.3741  13.5423  16.7837  20.4386  21.1832  21.6943  23.8137

          k = 0.3852 0.3852-0.4600 (   798 PWs)   bands (ev):

     9.4477   9.5750   9.7695  11.6195  11.6496  12.0955  12.7337  13.3388
    13.3454  13.5269  17.7229  19.0076  22.1139  22.6529  23.0399

          k = 0.3852-0.5136 0.0000 (   790 PWs)   bands (ev):

     8.6092   9.3834  10.0336  10.1530  12.4771  13.2435  13.3899  13.4978
    14.1227  14.1631  15.1992  15.2766  21.0399  23.0332  28.3462

          k = 0.3852-0.5136 0.1150 (   790 PWs)   bands (ev):

     8.7029   9.6533   9.9658  10.1019  12.3382  13.0418  13.3487  13.4589
    13.7464  13.8158  15.9719  16.1152  21.2308  22.9560  26.8342

          k = 0.3852-0.5136 0.2300 (   794 PWs)   bands (ev):

     8.9406   9.7896   9.9723  10.3967  11.9854  12.5445  13.2386  13.4248
    13.5828  13.6215  17.0939  17.6039  21.8648  22.6381  24.7654

          k = 0.3852-0.5136 0.3450 (   796 PWs)   bands (ev):

     9.2083   9.5844   9.8336  11.3817  11.6801  12.2486  13.0534  13.3898
    13.4808  13.5874  18.2650  19.1244  21.8543  21.9795  23.1248

          k = 0.3852-0.5136-0.4600 (   796 PWs)   bands (ev):

     9.3974   9.4216   9.7736  11.5646  12.0403  12.1727  12.7807  13.3636
    13.4470  13.5785  19.3771  20.1510  20.2718  21.0499  24.3113

          k =-0.5136-0.5136 0.0000 (   776 PWs)   bands (ev):

     8.4055   9.3780   9.9570   9.9570  13.4704  13.5071  13.5564  13.5995
    14.2760  14.2760  15.4419  15.4419  19.5237  22.1462  28.2051

          k =-0.5136-0.5136 0.1150 (   792 PWs)   bands (ev):

     8.5103   9.6422   9.9107   9.9107  13.4528  13.5103  13.5103  13.5107
    13.5435  13.6006  16.5237  16.5237  19.5688  22.0327  27.3889

          k =-0.5136-0.5136 0.2300 (   796 PWs)   bands (ev):

     8.7799   9.7915   9.7915  10.3677  12.7014  12.7014  13.3698  13.5001
    13.5196  13.6034  18.2538  18.2538  19.7557  21.7152  26.0545

          k =-0.5136-0.5136 0.3450 (   792 PWs)   bands (ev):

     9.0787   9.6618   9.6618  11.3236  12.2263  12.2263  13.1420  13.4342
    13.5284  13.6062  20.1329  20.1329  20.2458  21.3294  23.6558

          k =-0.5136-0.5136-0.4600 (   816 PWs)   bands (ev):

     9.2131   9.6052   9.6052  11.9305  12.0742  12.0742  12.8695  13.3979
    13.5321  13.6073  20.9729  21.1494  21.4349  21.4349  22.0379

     the Fermi energy is    15.6336 ev

!    total energy              =    -154.73004590 Ry
     estimated scf accuracy    <          4.6E-10 Ry
     smearing contrib. (-TS)   =      -0.00007943 Ry
     internal energy E=F+TS    =    -154.72996647 Ry

     The total energy is F=E-TS. E is the sum of the following terms:
     one-electron contribution =      -4.03344752 Ry
     hartree contribution      =      27.64232004 Ry
     xc contribution           =     -24.54896461 Ry
     ewald contribution        =    -153.78987438 Ry

     convergence has been achieved in  11 iterations

     Forces acting on atoms (cartesian axes, Ry/au):

     atom    1 type  2   force =     0.00000000    0.00000000    0.00000000
     atom    2 type  1   force =     0.00000000    0.00000000    0.00000000

     Total force =     0.000000     Total SCF correction =     0.000000


     Computing stress (Cartesian axis) and pressure

          total   stress  (Ry/bohr**3)                   (kbar)     P=       -0.08
  -0.00000042   0.00000000   0.00000000           -0.06        0.00        0.00
   0.00000000  -0.00000042   0.00000000            0.00       -0.06        0.00
   0.00000000   0.00000000  -0.00000069            0.00        0.00       -0.10


     init_run     :      8.28s CPU      8.38s WALL (       2 calls)
     electrons    :    207.34s CPU    211.51s WALL (      11 calls)
     update_pot   :     16.77s CPU     16.92s WALL (       9 calls)
     forces       :     10.78s CPU     10.89s WALL (      11 calls)
     stress       :     33.28s CPU     33.59s WALL (      11 calls)

     Called by init_run:
     wfcinit      :      1.54s CPU      1.55s WALL (       2 calls)
     potinit      :      1.68s CPU      1.70s WALL (       2 calls)
     hinit0       :      4.82s CPU      4.86s WALL (       2 calls)

     Called by electrons:
     c_bands      :    163.51s CPU    166.95s WALL (     107 calls)
     sum_band     :     36.61s CPU     37.26s WALL (     107 calls)
     v_of_rho     :      0.35s CPU      0.37s WALL (     113 calls)
     newd         :      7.42s CPU      7.51s WALL (     113 calls)
     mix_rho      :      0.21s CPU      0.21s WALL (     107 calls)

     Called by c_bands:
     init_us_2    :      7.16s CPU      7.31s WALL (   17850 calls)
     init_us_2:cp :      6.97s CPU      7.12s WALL (   17850 calls)
     cegterg      :    152.59s CPU    155.75s WALL (    8025 calls)

     Called by *egterg:
     cdiaghg      :      9.18s CPU      9.38s WALL (   22185 calls)
     h_psi        :    119.07s CPU    121.56s WALL (   23385 calls)
     s_psi        :      4.56s CPU      4.65s WALL (   23385 calls)
     g_psi        :      1.05s CPU      1.20s WALL (   15210 calls)

     Called by h_psi:
     h_psi:calbec :      5.14s CPU      5.24s WALL (   23385 calls)
     vloc_psi     :    108.10s CPU    110.37s WALL (   23385 calls)
     add_vuspsi   :      4.60s CPU      4.69s WALL (   23385 calls)

     General routines
     calbec       :      7.41s CPU      7.57s WALL (   35535 calls)
     fft          :      1.33s CPU      1.34s WALL (     725 calls)
     ffts         :      0.18s CPU      0.18s WALL (     220 calls)
     fftw         :    112.87s CPU    115.27s WALL (  700181 calls)
     interpolate  :      0.25s CPU      0.25s WALL (     113 calls)

     Parallel routines

     PWSCF        :   4m37.58s CPU   4m42.43s WALL


   This run was terminated on:  21:38:59  20Mar2023            

=------------------------------------------------------------------------------=
   JOB DONE.
=------------------------------------------------------------------------------=
