     Message from routine get_command_line:
     unexpected argument # 2     :-inp

     Program PWSCF v.7.1 starts on  3Mar2023 at  4:39:49 

     This program is part of the open-source Quantum ESPRESSO suite
     for quantum simulation of materials; please cite
         "P. Giannozzi et al., J. Phys.:Condens. Matter 21 395502 (2009);
         "P. Giannozzi et al., J. Phys.:Condens. Matter 29 465901 (2017);
         "P. Giannozzi et al., J. Chem. Phys. 152 154105 (2020);
          URL http://www.quantum-espresso.org", 
     in publications or presentations arising from this work. More details at
     http://www.quantum-espresso.org/quote

     Parallel version (MPI), running on     1 processors

     MPI processes distributed on     1 nodes
     2316 MiB available memory on the printing compute node when the environment starts

     Waiting for input...
     Reading input from standard input

     Current dimensions of program PWSCF are:
     Max number of different atomic species (ntypx) = 10
     Max number of k-points (npk) =  40000
     Max angular momentum in pseudopotentials (lmaxx) =  4

     Subspace diagonalization in iterative solution of the eigenvalue problem:
     a serial algorithm will be used


     G-vector sticks info
     --------------------
     sticks:   dense  smooth     PW     G-vecs:    dense   smooth      PW
     Sum         817     817    253                15185    15185    2637

     Using Slab Decomposition



     bravais-lattice index     =            2
     lattice parameter (alat)  =      14.0000  a.u.
     unit-cell volume          =     686.0000 (a.u.)^3
     number of atoms/cell      =            2
     number of atomic types    =            1
     number of electrons       =        28.00
     number of Kohn-Sham states=           14
     kinetic-energy cutoff     =      30.0000  Ry
     charge density cutoff     =     120.0000  Ry
     scf convergence threshold =      1.0E-08
     mixing beta               =       0.7000
     number of iterations used =            8  plain     mixing
     energy convergence thresh.=      1.0E-05
     force convergence thresh. =      1.0E-04
     press convergence thresh. =      5.0E-01
     Exchange-correlation=  SLA  PZ   NOGX NOGC
                           (   1   1   0   0   0   0   0)
     nstep                     =           50


     celldm(1)=  14.000000  celldm(2)=   0.000000  celldm(3)=   0.000000
     celldm(4)=   0.000000  celldm(5)=   0.000000  celldm(6)=   0.000000

     crystal axes: (cart. coord. in units of alat)
               a(1) = (  -0.500000   0.000000   0.500000 )  
               a(2) = (   0.000000   0.500000   0.500000 )  
               a(3) = (  -0.500000   0.500000   0.000000 )  

     reciprocal axes: (cart. coord. in units 2 pi/alat)
               b(1) = ( -1.000000 -1.000000  1.000000 )  
               b(2) = (  1.000000  1.000000  1.000000 )  
               b(3) = ( -1.000000  1.000000 -1.000000 )  


     PseudoPot. # 1 for Ge read from file:
     /home/bond/Software/qe-7.1/pseudo/ge_lda_v1.4.uspp.F.UPF
     MD5 check sum: bf9d52b59cc8a669818bb2b52e0c2ba0
     Pseudo is Ultrasoft + core correction, Zval = 14.0
     Generated by new atomic code, or converted to UPF format
     Using radial grid of  873 points,  6 beta functions with: 
                l(1) =   0
                l(2) =   0
                l(3) =   1
                l(4) =   1
                l(5) =   2
                l(6) =   2
     Q(r) pseudized with  8 coefficients,  rinner =    1.400   1.400   1.400
                                                       1.400   1.400

     atomic species   valence    mass     pseudopotential
        Ge            14.00    72.61000     Ge( 1.00)

      6 Sym. Ops. (no inversion) found



   Cartesian axes

     site n.     atom                  positions (alat units)
         1           Ge  tau(   1) = (   0.0000000   0.0000000   0.0000000  )
         2           Ge  tau(   2) = (   0.1687255   0.1687255   0.1687255  )

     number of k points=    30
                       cart. coord. in units 2pi/alat
        k(    1) = (  -0.1250000   0.1250000   0.1250000), wk =   0.0468750
        k(    2) = (  -0.3750000   0.3750000  -0.1250000), wk =   0.0937500
        k(    3) = (   0.3750000  -0.3750000   0.6250000), wk =   0.0937500
        k(    4) = (   0.1250000  -0.1250000   0.3750000), wk =   0.0937500
        k(    5) = (  -0.1250000   0.6250000   0.1250000), wk =   0.0937500
        k(    6) = (   0.6250000  -0.1250000   0.8750000), wk =   0.0937500
        k(    7) = (   0.3750000   0.1250000   0.6250000), wk =   0.0937500
        k(    8) = (  -0.1250000  -0.8750000   0.1250000), wk =   0.0937500
        k(    9) = (  -0.3750000   0.3750000   0.3750000), wk =   0.0468750
        k(   10) = (   0.3750000  -0.3750000   1.1250000), wk =   0.0937500
        k(   11) = (   0.1250000   0.1250000   0.1250000), wk =   0.0156250
        k(   12) = (   0.3750000   0.3750000  -0.1250000), wk =   0.0468750
        k(   13) = (  -0.3750000  -0.3750000  -0.1250000), wk =   0.0468750
        k(   14) = (  -0.3750000  -0.3750000   0.6250000), wk =   0.0468750
        k(   15) = (   0.3750000   0.3750000   0.6250000), wk =   0.0468750
        k(   16) = (  -0.1250000  -0.1250000   0.3750000), wk =   0.0468750
        k(   17) = (   0.1250000   0.1250000   0.3750000), wk =   0.0468750
        k(   18) = (   0.6250000   0.1250000   0.1250000), wk =   0.0468750
        k(   19) = (  -0.1250000   0.6250000  -0.1250000), wk =   0.0468750
        k(   20) = (  -0.1250000  -0.6250000   0.8750000), wk =   0.0937500
        k(   21) = (   0.1250000   0.6250000   0.8750000), wk =   0.0937500
        k(   22) = (  -0.8750000  -0.1250000   0.6250000), wk =   0.0937500
        k(   23) = (   0.1250000  -0.3750000   0.6250000), wk =   0.0937500
        k(   24) = (  -0.1250000   0.3750000   0.6250000), wk =   0.0937500
        k(   25) = (  -0.6250000   0.1250000   0.3750000), wk =   0.0937500
        k(   26) = (  -0.8750000   0.1250000   0.1250000), wk =   0.0468750
        k(   27) = (  -0.1250000  -0.8750000  -0.1250000), wk =   0.0468750
        k(   28) = (   0.3750000   0.3750000   0.3750000), wk =   0.0156250
        k(   29) = (  -0.3750000  -0.3750000   1.1250000), wk =   0.0468750
        k(   30) = (   0.3750000   0.3750000   1.1250000), wk =   0.0468750

     Dense  grid:    15185 G-vectors     FFT dimensions: (  36,  36,  36)

     Estimated max dynamical RAM per process >      71.51 MB

     Check: negative core charge=   -0.000111

     Initial potential from superposition of free atoms

     starting charge      27.9986, renormalised to      28.0000
     Starting wfcs are   18 randomized atomic wfcs

     total cpu time spent up to now is        2.0 secs

     Self-consistent Calculation

     iteration #  1     ecut=    30.00 Ry     beta= 0.70
     Davidson diagonalization with overlap
     ethr =  1.00E-02,  avg # of iterations =  2.0

     Threshold (ethr) on eigenvalues was too large:
     Diagonalizing with lowered threshold

     Davidson diagonalization with overlap
     ethr =  6.32E-05,  avg # of iterations =  3.4

     total cpu time spent up to now is        5.4 secs

     total energy              =    -425.83673473 Ry
     estimated scf accuracy    <       0.02290679 Ry

     iteration #  2     ecut=    30.00 Ry     beta= 0.70
     Davidson diagonalization with overlap
     ethr =  8.18E-05,  avg # of iterations =  2.4

     total cpu time spent up to now is        7.3 secs

     total energy              =    -425.84068548 Ry
     estimated scf accuracy    <       0.00180157 Ry

     iteration #  3     ecut=    30.00 Ry     beta= 0.70
     Davidson diagonalization with overlap
     ethr =  6.43E-06,  avg # of iterations =  2.8

     total cpu time spent up to now is        9.1 secs

     total energy              =    -425.84105784 Ry
     estimated scf accuracy    <       0.00003558 Ry

     iteration #  4     ecut=    30.00 Ry     beta= 0.70
     Davidson diagonalization with overlap
     ethr =  1.27E-07,  avg # of iterations =  5.3

     total cpu time spent up to now is       11.2 secs

     total energy              =    -425.84107397 Ry
     estimated scf accuracy    <       0.00000713 Ry

     iteration #  5     ecut=    30.00 Ry     beta= 0.70
     Davidson diagonalization with overlap
     ethr =  2.55E-08,  avg # of iterations =  5.1

     total cpu time spent up to now is       13.5 secs

     total energy              =    -425.84107624 Ry
     estimated scf accuracy    <       0.00000286 Ry

     iteration #  6     ecut=    30.00 Ry     beta= 0.70
     Davidson diagonalization with overlap
     ethr =  1.02E-08,  avg # of iterations =  2.7

     total cpu time spent up to now is       15.0 secs

     total energy              =    -425.84107640 Ry
     estimated scf accuracy    <       0.00000026 Ry

     iteration #  7     ecut=    30.00 Ry     beta= 0.70
     Davidson diagonalization with overlap
     ethr =  9.26E-10,  avg # of iterations =  6.6

     total cpu time spent up to now is       17.0 secs

     total energy              =    -425.84107653 Ry
     estimated scf accuracy    <       0.00000018 Ry

     iteration #  8     ecut=    30.00 Ry     beta= 0.70
     Davidson diagonalization with overlap
     ethr =  6.51E-10,  avg # of iterations =  3.0

     total cpu time spent up to now is       18.5 secs

     End of self-consistent calculation

          k =-0.1250 0.1250 0.1250 (  1898 PWs)   bands (ev):

   -24.3459 -24.1149 -24.1146 -24.0041 -24.0029 -23.9707 -23.9701 -23.8779
   -23.8765 -23.7611  -9.1945  -3.7634  -0.8339   0.6773

          k =-0.3750 0.3750-0.1250 (  1904 PWs)   bands (ev):

   -24.3446 -24.1175 -24.1153 -24.0034 -24.0006 -23.9748 -23.9706 -23.8790
   -23.8769 -23.7611  -9.0687  -4.1153  -1.0221   0.3182

          k = 0.3750-0.3750 0.6250 (  1912 PWs)   bands (ev):

   -24.3454 -24.1190 -24.1165 -24.0040 -24.0024 -23.9729 -23.9716 -23.8792
   -23.8757 -23.7627  -8.9656  -4.4856  -0.6960  -0.2848

          k = 0.1250-0.1250 0.3750 (  1922 PWs)   bands (ev):

   -24.3468 -24.1176 -24.1167 -24.0061 -24.0045 -23.9756 -23.9729 -23.8797
   -23.8782 -23.7649  -9.1020  -4.1549  -0.5741   0.2040

          k =-0.1250 0.6250 0.1250 (  1910 PWs)   bands (ev):

   -24.3440 -24.1188 -24.1161 -24.0042 -24.0013 -23.9745 -23.9711 -23.8780
   -23.8752 -23.7636  -8.9598  -4.6145  -0.3404  -0.2158

          k = 0.6250-0.1250 0.8750 (  1899 PWs)   bands (ev):

   -24.3451 -24.1156 -24.1154 -24.0054 -24.0016 -23.9704 -23.9699 -23.8766
   -23.8751 -23.7596  -8.8484  -4.8943  -0.9550  -0.1384

          k = 0.3750 0.1250 0.6250 (  1900 PWs)   bands (ev):

   -24.3447 -24.1162 -24.1149 -24.0051 -24.0023 -23.9731 -23.9711 -23.8752
   -23.8740 -23.7598  -8.8178  -5.2179  -0.3678   0.1377

          k =-0.1250-0.8750 0.1250 (  1893 PWs)   bands (ev):

   -24.3433 -24.1149 -24.1131 -24.0035 -24.0005 -23.9695 -23.9681 -23.8775
   -23.8737 -23.7601  -8.8493  -4.9056  -0.4711  -0.0755

          k =-0.3750 0.3750 0.3750 (  1907 PWs)   bands (ev):

   -24.3443 -24.1177 -24.1176 -24.0027 -24.0010 -23.9735 -23.9724 -23.8793
   -23.8754 -23.7632  -9.0259  -4.2929  -0.7045  -0.2006

          k = 0.3750-0.3750 1.1250 (  1892 PWs)   bands (ev):

   -24.3432 -24.1172 -24.1160 -24.0017 -24.0000 -23.9717 -23.9667 -23.8776
   -23.8726 -23.7599  -8.9232  -4.5915  -0.9834   0.1025

          k = 0.1250 0.1250 0.1250 (  1898 PWs)   bands (ev):

   -24.3459 -24.1152 -24.1152 -24.0038 -24.0038 -23.9717 -23.9717 -23.8750
   -23.8750 -23.7611  -9.1673  -4.0352  -0.3914   0.7246

          k = 0.3750 0.3750-0.1250 (  1904 PWs)   bands (ev):

   -24.3450 -24.1175 -24.1172 -24.0030 -24.0022 -23.9731 -23.9718 -23.8762
   -23.8722 -23.7655  -9.0156  -4.5102  -0.2962  -0.0061

          k =-0.3750-0.3750-0.1250 (  1904 PWs)   bands (ev):

   -24.3453 -24.1163 -24.1157 -24.0056 -24.0031 -23.9727 -23.9720 -23.8761
   -23.8743 -23.7622  -8.9346  -4.9506  -0.0400   0.4698

          k =-0.3750-0.3750 0.6250 (  1912 PWs)   bands (ev):

   -24.3455 -24.1191 -24.1182 -24.0037 -24.0019 -23.9726 -23.9725 -23.8773
   -23.8766 -23.7621  -8.9659  -4.4727  -1.0487   0.3246

          k = 0.3750 0.3750 0.6250 (  1912 PWs)   bands (ev):

   -24.3458 -24.1168 -24.1158 -24.0059 -24.0052 -23.9739 -23.9727 -23.8772
   -23.8749 -23.7604  -8.7435  -5.4966  -0.0808   0.0402

          k =-0.1250-0.1250 0.3750 (  1922 PWs)   bands (ev):

   -24.3474 -24.1184 -24.1166 -24.0063 -24.0058 -23.9737 -23.9729 -23.8811
   -23.8778 -23.7631  -9.1225  -3.9656  -0.9773   0.5260

          k = 0.1250 0.1250 0.3750 (  1922 PWs)   bands (ev):

   -24.3476 -24.1177 -24.1174 -24.0061 -24.0050 -23.9732 -23.9729 -23.8781
   -23.8778 -23.7667  -9.0505  -4.5230   0.0920   0.2759

          k = 0.6250 0.1250 0.1250 (  1910 PWs)   bands (ev):

   -24.3461 -24.1175 -24.1139 -24.0069 -24.0030 -23.9726 -23.9719 -23.8767
   -23.8759 -23.7621  -8.9000  -4.9320  -0.0881   0.1262

          k =-0.1250 0.6250-0.1250 (  1910 PWs)   bands (ev):

   -24.3439 -24.1191 -24.1173 -24.0045 -24.0002 -23.9738 -23.9718 -23.8781
   -23.8763 -23.7622  -8.9836  -4.4552  -0.9182   0.0737

          k =-0.1250-0.6250 0.8750 (  1899 PWs)   bands (ev):

   -24.3439 -24.1163 -24.1158 -24.0035 -24.0020 -23.9715 -23.9705 -23.8772
   -23.8741 -23.7598  -8.8481  -4.9029  -0.8177  -0.0463

          k = 0.1250 0.6250 0.8750 (  1899 PWs)   bands (ev):

   -24.3444 -24.1159 -24.1142 -24.0041 -24.0016 -23.9719 -23.9710 -23.8754
   -23.8747 -23.7609  -8.7808  -5.1986  -0.6328  -0.1968

          k =-0.8750-0.1250 0.6250 (  1899 PWs)   bands (ev):

   -24.3452 -24.1159 -24.1145 -24.0027 -24.0013 -23.9711 -23.9688 -23.8782
   -23.8758 -23.7610  -8.8744  -4.7708  -0.7035  -0.4638

          k = 0.1250-0.3750 0.6250 (  1900 PWs)   bands (ev):

   -24.3431 -24.1182 -24.1154 -24.0021 -24.0001 -23.9732 -23.9698 -23.8785
   -23.8742 -23.7621  -8.9676  -4.4615  -0.8451  -0.2314

          k =-0.1250 0.3750 0.6250 (  1900 PWs)   bands (ev):

   -24.3443 -24.1180 -24.1155 -24.0031 -24.0004 -23.9721 -23.9712 -23.8763
   -23.8731 -23.7626  -8.9089  -4.8035  -0.6787   0.4089

          k =-0.6250 0.1250 0.3750 (  1900 PWs)   bands (ev):

   -24.3444 -24.1173 -24.1153 -24.0035 -24.0007 -23.9719 -23.9708 -23.8775
   -23.8754 -23.7602  -8.9679  -4.4482  -1.1289   0.2237

          k =-0.8750 0.1250 0.1250 (  1893 PWs)   bands (ev):

   -24.3442 -24.1140 -24.1132 -24.0045 -24.0016 -23.9691 -23.9685 -23.8757
   -23.8735 -23.7600  -8.8496  -4.8971  -0.7085  -0.2068

          k =-0.1250-0.8750-0.1250 (  1893 PWs)   bands (ev):

   -24.3445 -24.1131 -24.1129 -24.0059 -23.9998 -23.9710 -23.9681 -23.8760
   -23.8747 -23.7583  -8.8106  -5.0811  -0.3336  -0.2609

          k = 0.3750 0.3750 0.3750 (  1907 PWs)   bands (ev):

   -24.3446 -24.1159 -24.1159 -24.0050 -24.0050 -23.9737 -23.9737 -23.8756
   -23.8756 -23.7616  -8.8192  -5.3451   0.1920   0.1920

          k =-0.3750-0.3750 1.1250 (  1892 PWs)   bands (ev):

   -24.3441 -24.1142 -24.1139 -24.0037 -24.0027 -23.9722 -23.9711 -23.8729
   -23.8718 -23.7594  -8.7657  -5.3246  -0.5882   0.0478

          k = 0.3750 0.3750 1.1250 (  1892 PWs)   bands (ev):

   -24.3439 -24.1161 -24.1143 -24.0036 -23.9986 -23.9719 -23.9702 -23.8761
   -23.8728 -23.7589  -8.8621  -4.9109  -0.9734   0.2376

     highest occupied level (ev):     0.7246

!    total energy              =    -425.84107655 Ry
     estimated scf accuracy    <          3.6E-09 Ry

     The total energy is the sum of the following terms:
     one-electron contribution =    -378.08270348 Ry
     hartree contribution      =     206.93372395 Ry
     xc contribution           =    -114.02206076 Ry
     ewald contribution        =    -140.67003626 Ry

     convergence has been achieved in   8 iterations

     Forces acting on atoms (cartesian axes, Ry/au):

     atom    1 type  1   force =    -0.07548458   -0.07548458   -0.07548458
     atom    2 type  1   force =     0.07548458    0.07548458    0.07548458

     Total force =     0.184899     Total SCF correction =     0.000495


     Computing stress (Cartesian axis) and pressure

          total   stress  (Ry/bohr**3)                   (kbar)     P=      -79.99
  -0.00054379   0.00014736   0.00014736          -79.99       21.68       21.68
   0.00014736  -0.00054379   0.00014736           21.68      -79.99       21.68
   0.00014736   0.00014736  -0.00054379           21.68       21.68      -79.99


     BFGS Geometry Optimization
     Energy error            =      0.0E+00 Ry
     Gradient error          =      7.5E-02 Ry/Bohr
     Cell gradient error     =      8.0E+01 kbar

     number of scf cycles    =   1
     number of bfgs steps    =   0

     enthalpy           new  =    -425.8410765515 Ry

     new trust radius        =       0.1307431270 bohr
ibrav =      2
 celldm(1) =     13.75809667
Input lattice vectors:
    -0.49136060     0.00000000     0.49136060
     0.00368411     0.49504471     0.49504471
    -0.49136060     0.49136060     0.00000000
New lattice vectors in INITIAL alat:
    -0.49136060     0.00000000     0.49136060
     0.00000000     0.49136060     0.49136060
    -0.49136060     0.49136060     0.00000000
New lattice vectors in NEW alat (for information only):
    -0.50000000     0.00000000     0.50000000
     0.00000000     0.50000000     0.50000000
    -0.50000000     0.50000000     0.00000000
Discrepancy in bohr =     0.000000    0.006381    0.000000
     new conv_thr            =       0.0000000100 Ry

     new unit-cell volume =    651.05110 a.u.^3 (    96.47582 Ang^3 )
     density =      2.49952 g/cm^3

CELL_PARAMETERS (alat= 14.00000000)
  -0.491360595   0.000000000   0.491360595
   0.000000000   0.491360595   0.491360595
  -0.491360595   0.491360595   0.000000000

ATOMIC_POSITIONS (angstrom)
Ge           -0.0392545221       -0.0392545221       -0.0392545221
Ge            1.2676560102        1.2676560102        1.2676560102



     Writing config-only to output data dir /home/bond/Work/Lab3/test/Ge.save/
     NEW-OLD atomic charge density approx. for the potential

     Check: negative core charge=   -0.000079
     extrapolated charge   26.49702, renormalised to   28.00000

     total cpu time spent up to now is       21.2 secs

     Self-consistent Calculation

     iteration #  1     ecut=    30.00 Ry     beta= 0.70
     Davidson diagonalization with overlap
     ethr =  1.00E-06,  avg # of iterations = 11.9

     total cpu time spent up to now is       25.7 secs

     total energy              =    -425.06203306 Ry
     estimated scf accuracy    <       0.47955129 Ry

     iteration #  2     ecut=    30.00 Ry     beta= 0.70
     Davidson diagonalization with overlap
     ethr =  1.71E-03,  avg # of iterations =  4.6

     total cpu time spent up to now is       27.7 secs

     total energy              =    -425.87893805 Ry
     estimated scf accuracy    <       0.84715287 Ry

     iteration #  3     ecut=    30.00 Ry     beta= 0.70
     Davidson diagonalization with overlap
     ethr =  1.71E-03,  avg # of iterations =  2.0

     total cpu time spent up to now is       29.5 secs

     total energy              =    -425.86300160 Ry
     estimated scf accuracy    <       0.14474437 Ry

     iteration #  4     ecut=    30.00 Ry     beta= 0.70
     Davidson diagonalization with overlap
     ethr =  5.17E-04,  avg # of iterations =  2.0

     total cpu time spent up to now is       31.2 secs

     total energy              =    -425.88466895 Ry
     estimated scf accuracy    <       0.00504203 Ry

     iteration #  5     ecut=    30.00 Ry     beta= 0.70
     Davidson diagonalization with overlap
     ethr =  1.80E-05,  avg # of iterations =  4.7

     total cpu time spent up to now is       33.2 secs

     total energy              =    -425.88794477 Ry
     estimated scf accuracy    <       0.00068250 Ry

     iteration #  6     ecut=    30.00 Ry     beta= 0.70
     Davidson diagonalization with overlap
     ethr =  2.44E-06,  avg # of iterations =  2.8

     total cpu time spent up to now is       34.7 secs

     total energy              =    -425.88769569 Ry
     estimated scf accuracy    <       0.00038147 Ry

     iteration #  7     ecut=    30.00 Ry     beta= 0.70
     Davidson diagonalization with overlap
     ethr =  1.36E-06,  avg # of iterations =  3.3

     total cpu time spent up to now is       36.5 secs

     total energy              =    -425.88781591 Ry
     estimated scf accuracy    <       0.00007092 Ry

     iteration #  8     ecut=    30.00 Ry     beta= 0.70
     Davidson diagonalization with overlap
     ethr =  2.53E-07,  avg # of iterations =  2.4

     total cpu time spent up to now is       38.0 secs

     total energy              =    -425.88782194 Ry
     estimated scf accuracy    <       0.00000263 Ry

     iteration #  9     ecut=    30.00 Ry     beta= 0.70
     Davidson diagonalization with overlap
     ethr =  9.39E-09,  avg # of iterations =  4.8

     total cpu time spent up to now is       39.7 secs

     total energy              =    -425.88782273 Ry
     estimated scf accuracy    <       0.00000196 Ry

     iteration # 10     ecut=    30.00 Ry     beta= 0.70
     Davidson diagonalization with overlap
     ethr =  6.99E-09,  avg # of iterations =  3.1

     total cpu time spent up to now is       41.2 secs

     End of self-consistent calculation

          k =-0.1272 0.1272 0.1272 (  1898 PWs)   bands (ev):

   -23.8291 -23.6697 -23.6693 -23.6205 -23.6201 -23.5958 -23.5951 -23.5063
   -23.5048 -23.4068  -8.6644  -3.4354  -0.4627   1.1940

          k =-0.3816 0.3816-0.1272 (  1904 PWs)   bands (ev):

   -23.8278 -23.6732 -23.6704 -23.6194 -23.6179 -23.5992 -23.5958 -23.5063
   -23.5034 -23.4072  -8.4929  -3.8739  -0.7049   0.7237

          k = 0.3816-0.3816 0.6360 (  1912 PWs)   bands (ev):

   -23.8292 -23.6739 -23.6724 -23.6202 -23.6178 -23.5992 -23.5961 -23.5067
   -23.5015 -23.4073  -8.3489  -4.3158  -0.3959   0.0695

          k = 0.1272-0.1272 0.3816 (  1922 PWs)   bands (ev):

   -23.8297 -23.6725 -23.6719 -23.6215 -23.6203 -23.5997 -23.5972 -23.5066
   -23.5046 -23.4093  -8.5407  -3.8959  -0.2062   0.6091

          k =-0.1272 0.6360 0.1272 (  1910 PWs)   bands (ev):

   -23.8287 -23.6732 -23.6727 -23.6204 -23.6171 -23.5993 -23.5967 -23.5056
   -23.5012 -23.4075  -8.3437  -4.4430  -0.0338   0.1514

          k = 0.6360-0.1272 0.8904 (  1899 PWs)   bands (ev):

   -23.8296 -23.6729 -23.6721 -23.6210 -23.6171 -23.5969 -23.5959 -23.5030
   -23.5011 -23.4046  -8.1814  -4.7881  -0.7083   0.2050

          k = 0.3816 0.1272 0.6360 (  1900 PWs)   bands (ev):

   -23.8300 -23.6732 -23.6725 -23.6202 -23.6178 -23.5987 -23.5971 -23.5020
   -23.4998 -23.4041  -8.1385  -5.1388  -0.0679   0.5257

          k =-0.1272-0.8904 0.1272 (  1893 PWs)   bands (ev):

   -23.8284 -23.6728 -23.6706 -23.6201 -23.6154 -23.5971 -23.5947 -23.5042
   -23.4991 -23.4050  -8.1827  -4.8010  -0.1772   0.2083

          k =-0.3816 0.3816 0.3816 (  1907 PWs)   bands (ev):

   -23.8283 -23.6736 -23.6718 -23.6186 -23.6183 -23.5990 -23.5966 -23.5068
   -23.5021 -23.4078  -8.4336  -4.0869  -0.3563   0.1450

          k = 0.3816-0.3816 1.1448 (  1892 PWs)   bands (ev):

   -23.8274 -23.6740 -23.6720 -23.6187 -23.6160 -23.5983 -23.5932 -23.5044
   -23.4993 -23.4057  -8.2888  -4.4410  -0.7185   0.4418

          k = 0.1272 0.1272 0.1272 (  1898 PWs)   bands (ev):

   -23.8284 -23.6706 -23.6706 -23.6203 -23.6203 -23.5964 -23.5964 -23.5033
   -23.5033 -23.4075  -8.6302  -3.7370   0.0154   1.2643

          k = 0.3816 0.3816-0.1272 (  1904 PWs)   bands (ev):

   -23.8292 -23.6724 -23.6717 -23.6198 -23.6186 -23.5986 -23.5959 -23.5047
   -23.5008 -23.4090  -8.4227  -4.3094   0.0073   0.4345

          k =-0.3816-0.3816-0.1272 (  1904 PWs)   bands (ev):

   -23.8300 -23.6732 -23.6720 -23.6198 -23.6196 -23.5988 -23.5969 -23.5034
   -23.5004 -23.4062  -8.3122  -4.8010   0.3111   1.1813

          k =-0.3816-0.3816 0.6360 (  1912 PWs)   bands (ev):

   -23.8287 -23.6745 -23.6718 -23.6190 -23.6187 -23.5983 -23.5972 -23.5057
   -23.5029 -23.4075  -8.3495  -4.3005  -0.7722   0.7447

          k = 0.3816 0.3816 0.6360 (  1912 PWs)   bands (ev):

   -23.8313 -23.6739 -23.6735 -23.6207 -23.6200 -23.5990 -23.5984 -23.5019
   -23.5007 -23.4039  -8.0221  -5.4731   0.2634   0.4409

          k =-0.1272-0.1272 0.3816 (  1922 PWs)   bands (ev):

   -23.8297 -23.6735 -23.6712 -23.6216 -23.6213 -23.5978 -23.5978 -23.5066
   -23.5054 -23.4085  -8.5671  -3.6862  -0.6435   0.9908

          k = 0.1272 0.1272 0.3816 (  1922 PWs)   bands (ev):

   -23.8303 -23.6738 -23.6728 -23.6218 -23.6199 -23.5984 -23.5974 -23.5047
   -23.5035 -23.4104  -8.4735  -4.3021   0.4821   0.7062

          k = 0.6360 0.1272 0.1272 (  1910 PWs)   bands (ev):

   -23.8298 -23.6730 -23.6727 -23.6222 -23.6176 -23.5991 -23.5967 -23.5036
   -23.5006 -23.4068  -8.2603  -4.7993   0.2856   0.3995

          k =-0.1272 0.6360-0.1272 (  1910 PWs)   bands (ev):

   -23.8279 -23.6734 -23.6733 -23.6203 -23.6165 -23.5983 -23.5977 -23.5051
   -23.5027 -23.4073  -8.3762  -4.2653  -0.6278   0.4563

          k =-0.1272-0.6360 0.8904 (  1899 PWs)   bands (ev):

   -23.8287 -23.6740 -23.6717 -23.6200 -23.6171 -23.5979 -23.5961 -23.5040
   -23.4998 -23.4048  -8.1807  -4.7984  -0.5581   0.2759

          k = 0.1272 0.6360 0.8904 (  1899 PWs)   bands (ev):

   -23.8299 -23.6735 -23.6723 -23.6197 -23.6169 -23.5981 -23.5972 -23.5014
   -23.5002 -23.4048  -8.0800  -5.1396  -0.3753   0.1488

          k =-0.8904-0.1272 0.6360 (  1899 PWs)   bands (ev):

   -23.8294 -23.6735 -23.6713 -23.6196 -23.6166 -23.5980 -23.5946 -23.5048
   -23.5008 -23.4058  -8.2188  -4.6489  -0.4385  -0.1545

          k = 0.1272-0.3816 0.6360 (  1900 PWs)   bands (ev):

   -23.8281 -23.6733 -23.6716 -23.6191 -23.6162 -23.5986 -23.5958 -23.5060
   -23.5007 -23.4065  -8.3523  -4.2843  -0.5500   0.1009

          k =-0.1272 0.3816 0.6360 (  1900 PWs)   bands (ev):

   -23.8288 -23.6732 -23.6719 -23.6191 -23.6171 -23.5981 -23.5963 -23.5043
   -23.4999 -23.4070  -8.2709  -4.6651  -0.4052   0.7629

          k =-0.6360 0.1272 0.3816 (  1900 PWs)   bands (ev):

   -23.8280 -23.6730 -23.6710 -23.6196 -23.6172 -23.5977 -23.5960 -23.5047
   -23.5025 -23.4062  -8.3529  -4.2684  -0.8603   0.6047

          k =-0.8904 0.1272 0.1272 (  1893 PWs)   bands (ev):

   -23.8292 -23.6720 -23.6709 -23.6205 -23.6161 -23.5969 -23.5950 -23.5027
   -23.4992 -23.4046  -8.1834  -4.7909  -0.4465   0.1436

          k =-0.1272-0.8904-0.1272 (  1893 PWs)   bands (ev):

   -23.8291 -23.6729 -23.6707 -23.6215 -23.6147 -23.5969 -23.5962 -23.5016
   -23.4997 -23.4039  -8.1256  -5.0022  -0.0738   0.0879

          k = 0.3816 0.3816 0.3816 (  1907 PWs)   bands (ev):

   -23.8300 -23.6733 -23.6733 -23.6201 -23.6201 -23.5988 -23.5988 -23.5012
   -23.5012 -23.4052  -8.1423  -5.2705   0.6180   0.6180

          k =-0.3816-0.3816 1.1448 (  1892 PWs)   bands (ev):

   -23.8298 -23.6728 -23.6720 -23.6189 -23.6181 -23.5982 -23.5975 -23.4996
   -23.4979 -23.4037  -8.0571  -5.2794  -0.3197   0.4390

          k = 0.3816 0.3816 1.1448 (  1892 PWs)   bands (ev):

   -23.8283 -23.6726 -23.6722 -23.6190 -23.6158 -23.5978 -23.5964 -23.5030
   -23.4991 -23.4047  -8.2021  -4.7992  -0.7277   0.6432

     highest occupied level (ev):     1.2643

!    total energy              =    -425.88782301 Ry
     estimated scf accuracy    <          5.2E-09 Ry

     The total energy is the sum of the following terms:
     one-electron contribution =    -367.58806901 Ry
     hartree contribution      =     202.08161075 Ry
     xc contribution           =    -114.01141427 Ry
     ewald contribution        =    -146.36995048 Ry

     convergence has been achieved in  10 iterations

     Forces acting on atoms (cartesian axes, Ry/au):

     atom    1 type  1   force =    -0.05342734   -0.05342734   -0.05342734
     atom    2 type  1   force =     0.05342734    0.05342734    0.05342734

     Total force =     0.130870     Total SCF correction =     0.000108


     Computing stress (Cartesian axis) and pressure

          total   stress  (Ry/bohr**3)                   (kbar)     P=      -80.97
  -0.00055043   0.00007205   0.00007205          -80.97       10.60       10.60
   0.00007205  -0.00055043   0.00007205           10.60      -80.97       10.60
   0.00007205   0.00007205  -0.00055043           10.60       10.60      -80.97

     Energy error            =      4.7E-02 Ry
     Gradient error          =      5.3E-02 Ry/Bohr
     Cell gradient error     =      8.1E+01 kbar

     number of scf cycles    =   2
     number of bfgs steps    =   1

     enthalpy           old  =    -425.8410765515 Ry
     enthalpy           new  =    -425.8878230085 Ry

     CASE: enthalpy          _new < enthalpy          _old


     WARNING: bfgs curvature condition failed, Theta= 0.981
     new trust radius        =       0.1927260621 bohr
ibrav =      2
 celldm(1) =     13.31940516
Input lattice vectors:
    -0.47569304    -0.00000000     0.47569304
    -0.00213528     0.47355776     0.47355776
    -0.47569304     0.47569304     0.00000000
New lattice vectors in INITIAL alat:
    -0.47569304     0.00000000     0.47569304
     0.00000000     0.47569304     0.47569304
    -0.47569304     0.47569304     0.00000000
New lattice vectors in NEW alat (for information only):
    -0.50000000     0.00000000     0.50000000
     0.00000000     0.50000000     0.50000000
    -0.50000000     0.50000000     0.00000000
Discrepancy in bohr =     0.000000    0.003698    0.000000
     new conv_thr            =       0.0000000100 Ry

     new unit-cell volume =    590.73744 a.u.^3 (    87.53826 Ang^3 )
     density =      2.75472 g/cm^3

CELL_PARAMETERS (alat= 14.00000000)
  -0.475693042   0.000000000   0.475693042
   0.000000000   0.475693042   0.475693042
  -0.475693042   0.475693042   0.000000000

ATOMIC_POSITIONS (angstrom)
Ge           -0.0950071250       -0.0950071250       -0.0950071250
Ge            1.2842397288        1.2842397288        1.2842397288



     Writing config-only to output data dir /home/bond/Work/Lab3/test/Ge.save/
     NEW-OLD atomic charge density approx. for the potential

     Check: negative core charge=   -0.000038
     extrapolated charge   25.14138, renormalised to   28.00000

     total cpu time spent up to now is       43.9 secs

     Self-consistent Calculation

     iteration #  1     ecut=    30.00 Ry     beta= 0.70
     Davidson diagonalization with overlap
     ethr =  1.00E-06,  avg # of iterations = 13.6

     total cpu time spent up to now is       48.7 secs

     total energy              =    -423.60959874 Ry
     estimated scf accuracy    <       1.45671697 Ry

     iteration #  2     ecut=    30.00 Ry     beta= 0.70
     Davidson diagonalization with overlap
     ethr =  5.20E-03,  avg # of iterations =  4.5

     total cpu time spent up to now is       50.7 secs

     total energy              =    -425.86999246 Ry
     estimated scf accuracy    <       2.30574006 Ry

     iteration #  3     ecut=    30.00 Ry     beta= 0.70
     Davidson diagonalization with overlap
     ethr =  5.20E-03,  avg # of iterations =  2.0

     total cpu time spent up to now is       52.5 secs

     total energy              =    -425.87647413 Ry
     estimated scf accuracy    <       0.33101306 Ry

     iteration #  4     ecut=    30.00 Ry     beta= 0.70
     Davidson diagonalization with overlap
     ethr =  1.18E-03,  avg # of iterations =  2.2

     total cpu time spent up to now is       54.2 secs

     total energy              =    -425.94631323 Ry
     estimated scf accuracy    <       0.00363084 Ry

     iteration #  5     ecut=    30.00 Ry     beta= 0.70
     Davidson diagonalization with overlap
     ethr =  1.30E-05,  avg # of iterations =  5.3

     total cpu time spent up to now is       56.3 secs

     total energy              =    -425.94970329 Ry
     estimated scf accuracy    <       0.00442544 Ry

     iteration #  6     ecut=    30.00 Ry     beta= 0.70
     Davidson diagonalization with overlap
     ethr =  1.30E-05,  avg # of iterations =  2.0

     total cpu time spent up to now is       57.8 secs

     total energy              =    -425.94976239 Ry
     estimated scf accuracy    <       0.00049422 Ry

     iteration #  7     ecut=    30.00 Ry     beta= 0.70
     Davidson diagonalization with overlap
     ethr =  1.77E-06,  avg # of iterations =  3.8

     total cpu time spent up to now is       59.6 secs

     total energy              =    -425.94995379 Ry
     estimated scf accuracy    <       0.00003754 Ry

     iteration #  8     ecut=    30.00 Ry     beta= 0.70
     Davidson diagonalization with overlap
     ethr =  1.34E-07,  avg # of iterations =  3.2

     total cpu time spent up to now is       61.1 secs

     total energy              =    -425.94994442 Ry
     estimated scf accuracy    <       0.00002098 Ry

     iteration #  9     ecut=    30.00 Ry     beta= 0.70
     Davidson diagonalization with overlap
     ethr =  7.49E-08,  avg # of iterations =  2.4

     total cpu time spent up to now is       62.5 secs

     total energy              =    -425.94994818 Ry
     estimated scf accuracy    <       0.00000036 Ry

     iteration # 10     ecut=    30.00 Ry     beta= 0.70
     Davidson diagonalization with overlap
     ethr =  1.29E-09,  avg # of iterations =  5.0

     total cpu time spent up to now is       64.6 secs

     total energy              =    -425.94994836 Ry
     estimated scf accuracy    <       0.00000023 Ry

     iteration # 11     ecut=    30.00 Ry     beta= 0.70
     Davidson diagonalization with overlap
     ethr =  8.28E-10,  avg # of iterations =  2.1

     total cpu time spent up to now is       66.0 secs

     total energy              =    -425.94994837 Ry
     estimated scf accuracy    <       0.00000002 Ry

     iteration # 12     ecut=    30.00 Ry     beta= 0.70
     Davidson diagonalization with overlap
     ethr =  8.51E-11,  avg # of iterations =  5.0

     total cpu time spent up to now is       68.0 secs

     total energy              =    -425.94994838 Ry
     estimated scf accuracy    <       0.00000002 Ry

     iteration # 13     ecut=    30.00 Ry     beta= 0.70
     Davidson diagonalization with overlap
     ethr =  8.22E-11,  avg # of iterations =  2.1

     total cpu time spent up to now is       69.5 secs

     End of self-consistent calculation

          k =-0.1314 0.1314 0.1314 (  1898 PWs)   bands (ev):

   -23.0324 -22.9344 -22.9333 -22.9225 -22.9215 -22.9025 -22.9011 -22.8317
   -22.8302 -22.7566  -7.9162  -2.6778   0.2940   2.0204

          k =-0.3942 0.3942-0.1314 (  1904 PWs)   bands (ev):

   -23.0330 -22.9372 -22.9337 -22.9227 -22.9194 -22.9060 -22.9010 -22.8314
   -22.8275 -22.7554  -7.6497  -3.3176  -0.0812   1.3906

          k = 0.3942-0.3942 0.6569 (  1912 PWs)   bands (ev):

   -23.0347 -22.9403 -22.9337 -22.9234 -22.9158 -22.9096 -22.9004 -22.8327
   -22.8234 -22.7541  -7.4169  -3.9090   0.1454   0.7337

          k = 0.1314-0.1314 0.3942 (  1922 PWs)   bands (ev):

   -23.0342 -22.9382 -22.9347 -22.9224 -22.9187 -22.9066 -22.9022 -22.8319
   -22.8274 -22.7559  -7.7342  -3.2762   0.5063   1.2769

          k =-0.1314 0.6569 0.1314 (  1910 PWs)   bands (ev):

   -23.0352 -22.9407 -22.9352 -22.9220 -22.9154 -22.9084 -22.9025 -22.8309
   -22.8234 -22.7536  -7.4242  -4.0014   0.5030   0.7618

          k = 0.6569-0.1314 0.9197 (  1899 PWs)   bands (ev):

   -23.0357 -22.9409 -22.9371 -22.9214 -22.9172 -22.9061 -22.9034 -22.8269
   -22.8232 -22.7522  -7.1370  -4.4987  -0.2738   0.7459

          k = 0.3942 0.1314 0.6569 (  1900 PWs)   bands (ev):

   -23.0366 -22.9424 -22.9401 -22.9191 -22.9164 -22.9079 -22.9048 -22.8249
   -22.8209 -22.7513  -7.0889  -4.8624   0.4160   1.1447

          k =-0.1314-0.9197 0.1314 (  1893 PWs)   bands (ev):

   -23.0356 -22.9423 -22.9348 -22.9226 -22.9136 -22.9090 -22.9017 -22.8291
   -22.8203 -22.7519  -7.1396  -4.5149   0.3095   0.6560

          k =-0.3942 0.3942 0.3942 (  1907 PWs)   bands (ev):

   -23.0340 -22.9391 -22.9329 -22.9234 -22.9169 -22.9084 -22.9003 -22.8331
   -22.8251 -22.7548  -7.5551  -3.6062   0.3127   0.7947

          k = 0.3942-0.3942 1.1825 (  1892 PWs)   bands (ev):

   -23.0346 -22.9396 -22.9345 -22.9223 -22.9163 -22.9079 -22.9002 -22.8302
   -22.8236 -22.7529  -7.3163  -4.0724  -0.2381   0.9570

          k = 0.1314 0.1314 0.1314 (  1898 PWs)   bands (ev):

   -23.0330 -22.9357 -22.9357 -22.9201 -22.9201 -22.9032 -22.9032 -22.8295
   -22.8295 -22.7559  -7.8751  -3.0205   0.8308   2.1235

          k = 0.3942 0.3942-0.1314 (  1904 PWs)   bands (ev):

   -23.0356 -22.9391 -22.9357 -22.9209 -22.9159 -22.9086 -22.9015 -22.8311
   -22.8246 -22.7540  -7.5563  -3.7990   0.5228   1.2928

          k =-0.3942-0.3942-0.1314 (  1904 PWs)   bands (ev):

   -23.0362 -22.9413 -22.9396 -22.9180 -22.9161 -22.9084 -22.9049 -22.8265
   -22.8230 -22.7527  -7.4027  -4.3565   0.8766   2.0390

          k =-0.3942-0.3942 0.6569 (  1912 PWs)   bands (ev):

   -23.0346 -22.9392 -22.9347 -22.9219 -22.9178 -22.9078 -22.9016 -22.8312
   -22.8254 -22.7541  -7.4180  -3.8889  -0.2508   1.5325

          k = 0.3942 0.3942 0.6569 (  1912 PWs)   bands (ev):

   -23.0378 -22.9431 -22.9425 -22.9191 -22.9182 -22.9066 -22.9063 -22.8220
   -22.8209 -22.7505  -6.8529  -5.3355   0.8103   1.1047

          k =-0.1314-0.1314 0.3942 (  1922 PWs)   bands (ev):

   -23.0335 -22.9354 -22.9353 -22.9225 -22.9217 -22.9035 -22.9031 -22.8309
   -22.8301 -22.7562  -7.7677  -3.0409   0.0195   1.6942

          k = 0.1314 0.1314 0.3942 (  1922 PWs)   bands (ev):

   -23.0360 -22.9399 -22.9378 -22.9199 -22.9169 -22.9071 -22.9041 -22.8293
   -22.8262 -22.7547  -7.6482  -3.7283   1.1864   1.4024

          k = 0.6569 0.1314 0.1314 (  1910 PWs)   bands (ev):

   -23.0363 -22.9422 -22.9377 -22.9207 -22.9148 -22.9092 -22.9037 -22.8284
   -22.8213 -22.7527  -7.3014  -4.4117   0.8465   0.8984

          k =-0.1314 0.6569-0.1314 (  1910 PWs)   bands (ev):

   -23.0343 -22.9391 -22.9352 -22.9221 -22.9175 -22.9052 -22.9038 -22.8302
   -22.8260 -22.7540  -7.4707  -3.7988  -0.0868   1.0614

          k =-0.1314-0.6569 0.9197 (  1899 PWs)   bands (ev):

   -23.0355 -22.9415 -22.9362 -22.9218 -22.9161 -22.9080 -22.9024 -22.8284
   -22.8220 -22.7521  -7.1353  -4.5128  -0.1082   0.7567

          k = 0.1314 0.6569 0.9197 (  1899 PWs)   bands (ev):

   -23.0368 -22.9425 -22.9389 -22.9204 -22.9165 -22.9072 -22.9043 -22.8248
   -22.8211 -22.7513  -6.9529  -4.9456   0.0513   0.7026

          k =-0.9197-0.1314 0.6569 (  1899 PWs)   bands (ev):

   -23.0354 -22.9415 -22.9350 -22.9224 -22.9158 -22.9081 -22.9014 -22.8294
   -22.8221 -22.7529  -7.1980  -4.3349   0.0413   0.3311

          k = 0.1314-0.3942 0.6569 (  1900 PWs)   bands (ev):

   -23.0343 -22.9394 -22.9340 -22.9227 -22.9164 -22.9077 -22.9012 -22.8313
   -22.8241 -22.7538  -7.4246  -3.8573  -0.0011   0.6528

          k =-0.1314 0.3942 0.6569 (  1900 PWs)   bands (ev):

   -23.0358 -22.9406 -22.9367 -22.9204 -22.9156 -22.9087 -22.9022 -22.8294
   -22.8224 -22.7528  -7.3044  -4.2885   0.0615   1.3423

          k =-0.6569 0.1314 0.3942 (  1900 PWs)   bands (ev):

   -23.0340 -22.9379 -22.9355 -22.9214 -22.9186 -22.9058 -22.9021 -22.8292
   -22.8264 -22.7539  -7.4257  -3.8361  -0.3545   1.1771

          k =-0.9197 0.1314 0.1314 (  1893 PWs)   bands (ev):

   -23.0357 -22.9416 -22.9352 -22.9223 -22.9151 -22.9074 -22.9026 -22.8281
   -22.8210 -22.7520  -7.1414  -4.5010   0.0061   0.7121

          k =-0.1314-0.9197-0.1314 (  1893 PWs)   bands (ev):

   -23.0356 -22.9433 -22.9361 -22.9222 -22.9137 -22.9086 -22.9030 -22.8271
   -22.8195 -22.7517  -7.0400  -4.7637   0.3416   0.6598

          k = 0.3942 0.3942 0.3942 (  1907 PWs)   bands (ev):

   -23.0375 -22.9424 -22.9424 -22.9177 -22.9177 -22.9070 -22.9070 -22.8222
   -22.8222 -22.7510  -7.1165  -4.9761   1.3222   1.3222

          k =-0.3942-0.3942 1.1825 (  1892 PWs)   bands (ev):

   -23.0369 -22.9415 -22.9407 -22.9188 -22.9177 -22.9061 -22.9057 -22.8217
   -22.8215 -22.7507  -6.9162  -5.1036   0.1187   1.0738

          k = 0.3942 0.3942 1.1825 (  1892 PWs)   bands (ev):

   -23.0350 -22.9393 -22.9390 -22.9185 -22.9182 -22.9066 -22.9034 -22.8262
   -22.8232 -22.7523  -7.1805  -4.4865  -0.2991   1.2711

     highest occupied level (ev):     2.1235

!    total energy              =    -425.94994838 Ry
     estimated scf accuracy    <          1.9E-10 Ry

     The total energy is the sum of the following terms:
     one-electron contribution =    -352.36693109 Ry
     hartree contribution      =     195.17960253 Ry
     xc contribution           =    -114.02297687 Ry
     ewald contribution        =    -154.73964295 Ry

     convergence has been achieved in  13 iterations

     Forces acting on atoms (cartesian axes, Ry/au):

     atom    1 type  1   force =    -0.03680407   -0.03680407   -0.03680407
     atom    2 type  1   force =     0.03680407    0.03680407    0.03680407

     Total force =     0.090151     Total SCF correction =     0.000053


     Computing stress (Cartesian axis) and pressure

          total   stress  (Ry/bohr**3)                   (kbar)     P=      -81.97
  -0.00055722   0.00000990   0.00000990          -81.97        1.46        1.46
   0.00000990  -0.00055722   0.00000990            1.46      -81.97        1.46
   0.00000990   0.00000990  -0.00055722            1.46        1.46      -81.97

     Energy error            =      6.2E-02 Ry
     Gradient error          =      3.7E-02 Ry/Bohr
     Cell gradient error     =      8.2E+01 kbar

     number of scf cycles    =   3
     number of bfgs steps    =   2

     enthalpy           old  =    -425.8878230085 Ry
     enthalpy           new  =    -425.9499483819 Ry

     CASE: enthalpy          _new < enthalpy          _old

     new trust radius        =       0.2798711808 bohr
ibrav =      2
 celldm(1) =     12.60051943
Input lattice vectors:
    -0.45001855     0.00000000     0.45001855
    -0.00199212     0.44802643     0.44802643
    -0.45001855     0.45001855    -0.00000000
New lattice vectors in INITIAL alat:
    -0.45001855     0.00000000     0.45001855
     0.00000000     0.45001855     0.45001855
    -0.45001855     0.45001855     0.00000000
New lattice vectors in NEW alat (for information only):
    -0.50000000     0.00000000     0.50000000
     0.00000000     0.50000000     0.50000000
    -0.50000000     0.50000000     0.00000000
Discrepancy in bohr =     0.000000    0.003450    0.000000
     new conv_thr            =       0.0000000100 Ry

     new unit-cell volume =    500.15585 a.u.^3 (    74.11545 Ang^3 )
     density =      3.25362 g/cm^3

CELL_PARAMETERS (alat= 14.00000000)
  -0.450018551   0.000000000   0.450018551
   0.000000000   0.450018551   0.450018551
  -0.450018551   0.450018551   0.000000000

ATOMIC_POSITIONS (angstrom)
Ge           -0.1707707145       -0.1707707145       -0.1707707145
Ge            1.2958170919        1.2958170919        1.2958170919



     Writing config-only to output data dir /home/bond/Work/Lab3/test/Ge.save/
     NEW-OLD atomic charge density approx. for the potential

     Check: negative core charge=   -0.000005
     extrapolated charge   22.92927, renormalised to   28.00000

     total cpu time spent up to now is       72.2 secs

     Self-consistent Calculation

     iteration #  1     ecut=    30.00 Ry     beta= 0.70
     Davidson diagonalization with overlap
     c_bands:  1 eigenvalues not converged
     c_bands:  1 eigenvalues not converged
     c_bands:  1 eigenvalues not converged
     ethr =  1.00E-06,  avg # of iterations = 15.1

     total cpu time spent up to now is       77.4 secs

     total energy              =    -420.57057511 Ry
     estimated scf accuracy    <       4.23061296 Ry

     iteration #  2     ecut=    30.00 Ry     beta= 0.70
     Davidson diagonalization with overlap
     ethr =  1.00E-02,  avg # of iterations =  4.1

     total cpu time spent up to now is       79.4 secs

     total energy              =    -425.52684556 Ry
     estimated scf accuracy    <       5.39624890 Ry

     iteration #  3     ecut=    30.00 Ry     beta= 0.70
     Davidson diagonalization with overlap
     ethr =  1.00E-02,  avg # of iterations =  2.0

     total cpu time spent up to now is       81.1 secs

     total energy              =    -425.93842274 Ry
     estimated scf accuracy    <       0.46847574 Ry

     iteration #  4     ecut=    30.00 Ry     beta= 0.70
     Davidson diagonalization with overlap
     ethr =  1.67E-03,  avg # of iterations =  2.2

     total cpu time spent up to now is       82.8 secs

     total energy              =    -426.02485622 Ry
     estimated scf accuracy    <       0.01233608 Ry

     iteration #  5     ecut=    30.00 Ry     beta= 0.70
     Davidson diagonalization with overlap
     ethr =  4.41E-05,  avg # of iterations =  3.6

     total cpu time spent up to now is       84.7 secs

     total energy              =    -426.03069360 Ry
     estimated scf accuracy    <       0.00237649 Ry

     iteration #  6     ecut=    30.00 Ry     beta= 0.70
     Davidson diagonalization with overlap
     ethr =  8.49E-06,  avg # of iterations =  2.1

     total cpu time spent up to now is       86.2 secs

     total energy              =    -426.03082857 Ry
     estimated scf accuracy    <       0.00019447 Ry

     iteration #  7     ecut=    30.00 Ry     beta= 0.70
     Davidson diagonalization with overlap
     ethr =  6.95E-07,  avg # of iterations =  3.0

     total cpu time spent up to now is       88.0 secs

     total energy              =    -426.03089331 Ry
     estimated scf accuracy    <       0.00000725 Ry

     iteration #  8     ecut=    30.00 Ry     beta= 0.70
     Davidson diagonalization with overlap
     ethr =  2.59E-08,  avg # of iterations =  3.3

     total cpu time spent up to now is       89.6 secs

     total energy              =    -426.03089439 Ry
     estimated scf accuracy    <       0.00000092 Ry

     iteration #  9     ecut=    30.00 Ry     beta= 0.70
     Davidson diagonalization with overlap
     ethr =  3.29E-09,  avg # of iterations =  2.7

     total cpu time spent up to now is       91.2 secs

     total energy              =    -426.03089453 Ry
     estimated scf accuracy    <       0.00000007 Ry

     iteration # 10     ecut=    30.00 Ry     beta= 0.70
     Davidson diagonalization with overlap
     ethr =  2.45E-10,  avg # of iterations =  3.0

     total cpu time spent up to now is       93.1 secs

     End of self-consistent calculation

          k =-0.1389 0.1389 0.1389 (  1898 PWs)   bands (ev):

   -21.6507 -21.6086 -21.6065 -21.6016 -21.6003 -21.5671 -21.5646 -21.5339
   -21.5323 -21.4833  -6.9194  -0.9861   1.9527   3.2444

          k =-0.4166 0.4166-0.1389 (  1904 PWs)   bands (ev):

   -21.6531 -21.6115 -21.6018 -21.5984 -21.5971 -21.5754 -21.5635 -21.5356
   -21.5313 -21.4802  -6.4610  -2.1432   1.2254   2.4727

          k = 0.4166-0.4166 0.6944 (  1912 PWs)   bands (ev):

   -21.6544 -21.6145 -21.6027 -21.5952 -21.5925 -21.5826 -21.5644 -21.5369
   -21.5253 -21.4787  -6.0351  -3.0382   1.2307   1.9358

          k = 0.1389-0.1389 0.4166 (  1922 PWs)   bands (ev):

   -21.6526 -21.6127 -21.6091 -21.5975 -21.5937 -21.5727 -21.5673 -21.5341
   -21.5276 -21.4812  -6.6430  -1.8526   1.9091   2.3759

          k =-0.1389 0.6944 0.1389 (  1910 PWs)   bands (ev):

   -21.6549 -21.6166 -21.6084 -21.5932 -21.5887 -21.5789 -21.5714 -21.5344
   -21.5222 -21.4783  -6.1265  -2.9139   1.5114   1.7318

          k = 0.6944-0.1389 0.9722 (  1899 PWs)   bands (ev):

   -21.6575 -21.6185 -21.6026 -21.5946 -21.5880 -21.5808 -21.5733 -21.5331
   -21.5223 -21.4752  -5.5102  -3.7956   0.5691   1.5930

          k = 0.4166 0.1389 0.6944 (  1900 PWs)   bands (ev):

   -21.6580 -21.6195 -21.6147 -21.5932 -21.5851 -21.5806 -21.5767 -21.5243
   -21.5187 -21.4754  -5.6638  -3.8740   1.2206   2.1304

          k =-0.1389-0.9722 0.1389 (  1893 PWs)   bands (ev):

   -21.6566 -21.6190 -21.6047 -21.5928 -21.5889 -21.5814 -21.5725 -21.5348
   -21.5191 -21.4762  -5.5195  -3.8125   1.1949   1.4434

          k =-0.4166 0.4166 0.4166 (  1907 PWs)   bands (ev):

   -21.6534 -21.6120 -21.6042 -21.5972 -21.5949 -21.5788 -21.5627 -21.5374
   -21.5272 -21.4799  -6.2931  -2.5924   1.7126   2.1213

          k = 0.4166-0.4166 1.2499 (  1892 PWs)   bands (ev):

   -21.6556 -21.6165 -21.5979 -21.5941 -21.5911 -21.5863 -21.5665 -21.5353
   -21.5260 -21.4772  -5.8366  -3.2715   0.6782   1.8402

          k = 0.1389 0.1389 0.1389 (  1898 PWs)   bands (ev):

   -21.6515 -21.6122 -21.6122 -21.5966 -21.5966 -21.5687 -21.5687 -21.5298
   -21.5298 -21.4827  -6.8868  -1.3178   2.5346   3.3148

          k = 0.4166 0.4166-0.1389 (  1904 PWs)   bands (ev):

   -21.6540 -21.6153 -21.6106 -21.5955 -21.5899 -21.5766 -21.5704 -21.5315
   -21.5243 -21.4796  -6.3743  -2.5492   1.4797   3.0042

          k =-0.4166-0.4166-0.1389 (  1904 PWs)   bands (ev):

   -21.6560 -21.6184 -21.6165 -21.5930 -21.5863 -21.5782 -21.5761 -21.5239
   -21.5210 -21.4778  -6.2339  -3.0462   1.8039   3.6025

          k =-0.4166-0.4166 0.6944 (  1912 PWs)   bands (ev):

   -21.6549 -21.6137 -21.6018 -21.5970 -21.5929 -21.5800 -21.5662 -21.5337
   -21.5289 -21.4781  -6.0374  -3.0145   0.8550   3.0921

          k = 0.4166 0.4166 0.6944 (  1912 PWs)   bands (ev):

   -21.6592 -21.6201 -21.6184 -21.5922 -21.5915 -21.5771 -21.5767 -21.5195
   -21.5169 -21.4744  -5.2433  -4.5417   1.6840   2.2001

          k =-0.1389-0.1389 0.4166 (  1922 PWs)   bands (ev):

   -21.6523 -21.6100 -21.6057 -21.5994 -21.5973 -21.5703 -21.5657 -21.5350
   -21.5318 -21.4814  -6.6717  -1.6428   1.4317   2.6870

          k = 0.1389 0.1389 0.4166 (  1922 PWs)   bands (ev):

   -21.6538 -21.6156 -21.6150 -21.5942 -21.5894 -21.5747 -21.5731 -21.5285
   -21.5238 -21.4802  -6.5701  -2.2571   2.3624   2.5027

          k = 0.6944 0.1389 0.1389 (  1910 PWs)   bands (ev):

   -21.6562 -21.6182 -21.6137 -21.5921 -21.5843 -21.5807 -21.5762 -21.5292
   -21.5189 -21.4773  -5.9987  -3.2880   1.6533   1.8970

          k =-0.1389 0.6944-0.1389 (  1910 PWs)   bands (ev):

   -21.6549 -21.6150 -21.6056 -21.5937 -21.5919 -21.5748 -21.5716 -21.5362
   -21.5254 -21.4782  -6.1753  -2.7291   1.0074   2.0018

          k =-0.1389-0.6944 0.9722 (  1899 PWs)   bands (ev):

   -21.6571 -21.6189 -21.6028 -21.5936 -21.5883 -21.5835 -21.5719 -21.5328
   -21.5218 -21.4757  -5.5044  -3.8165   0.7328   1.5246

          k = 0.1389 0.6944 0.9722 (  1899 PWs)   bands (ev):

   -21.6586 -21.6200 -21.6092 -21.5923 -21.5878 -21.5802 -21.5762 -21.5287
   -21.5186 -21.4744  -5.0997  -4.4297   0.8098   1.5823

          k =-0.9722-0.1389 0.6944 (  1899 PWs)   bands (ev):

   -21.6565 -21.6185 -21.5986 -21.5942 -21.5892 -21.5857 -21.5691 -21.5362
   -21.5221 -21.4763  -5.6045  -3.6251   0.9706   1.1174

          k = 0.1389-0.4166 0.6944 (  1900 PWs)   bands (ev):

   -21.6547 -21.6155 -21.6012 -21.5938 -21.5925 -21.5826 -21.5655 -21.5373
   -21.5256 -21.4782  -6.0588  -2.9223   1.0579   1.6174

          k =-0.1389 0.4166 0.6944 (  1900 PWs)   bands (ev):

   -21.6560 -21.6174 -21.6084 -21.5945 -21.5868 -21.5802 -21.5731 -21.5303
   -21.5228 -21.4772  -5.9232  -3.3050   0.9277   2.2396

          k =-0.6944 0.1389 0.4166 (  1900 PWs)   bands (ev):

   -21.6552 -21.6148 -21.6005 -21.5951 -21.5933 -21.5795 -21.5675 -21.5343
   -21.5290 -21.4776  -6.0610  -2.8959   0.6871   2.0603

          k =-0.9722 0.1389 0.1389 (  1893 PWs)   bands (ev):

   -21.6570 -21.6185 -21.6048 -21.5935 -21.5885 -21.5780 -21.5749 -21.5352
   -21.5196 -21.4758  -5.5251  -3.7921   0.8811   1.6285

          k =-0.1389-0.9722-0.1389 (  1893 PWs)   bands (ev):

   -21.6574 -21.6195 -21.6089 -21.5909 -21.5886 -21.5791 -21.5762 -21.5321
   -21.5173 -21.4755  -5.3378  -4.1159   1.1089   1.5948

          k = 0.4166 0.4166 0.4166 (  1907 PWs)   bands (ev):

   -21.6580 -21.6196 -21.6196 -21.5911 -21.5911 -21.5770 -21.5770 -21.5186
   -21.5186 -21.4759  -5.8510  -3.8072   2.4765   2.4765

          k =-0.4166-0.4166 1.2499 (  1892 PWs)   bands (ev):

   -21.6590 -21.6200 -21.6129 -21.5937 -21.5870 -21.5794 -21.5767 -21.5236
   -21.5192 -21.4741  -5.1688  -4.4596   0.8625   2.0924

          k = 0.4166 0.4166 1.2499 (  1892 PWs)   bands (ev):

   -21.6573 -21.6177 -21.6059 -21.5958 -21.5866 -21.5780 -21.5759 -21.5277
   -21.5255 -21.4755  -5.6564  -3.6656   0.5209   2.2169

     highest occupied level (ev):     3.6025

!    total energy              =    -426.03089456 Ry
     estimated scf accuracy    <          1.2E-09 Ry

     The total energy is the sum of the following terms:
     one-electron contribution =    -331.34534100 Ry
     hartree contribution      =     186.00873407 Ry
     xc contribution           =    -114.09305347 Ry
     ewald contribution        =    -166.60123416 Ry

     convergence has been achieved in  10 iterations

     Forces acting on atoms (cartesian axes, Ry/au):

     atom    1 type  1   force =    -0.02194952   -0.02194952   -0.02194952
     atom    2 type  1   force =     0.02194952    0.02194952    0.02194952

     Total force =     0.053765     Total SCF correction =     0.000345


     Computing stress (Cartesian axis) and pressure

          total   stress  (Ry/bohr**3)                   (kbar)     P=      -91.83
  -0.00062422  -0.00000826  -0.00000826          -91.83       -1.21       -1.21
  -0.00000826  -0.00062422  -0.00000826           -1.21      -91.83       -1.21
  -0.00000826  -0.00000826  -0.00062422           -1.21       -1.21      -91.83

     Energy error            =      8.1E-02 Ry
     Gradient error          =      2.2E-02 Ry/Bohr
     Cell gradient error     =      9.2E+01 kbar

     number of scf cycles    =   4
     number of bfgs steps    =   3

     enthalpy           old  =    -425.9499483819 Ry
     enthalpy           new  =    -426.0308945574 Ry

     CASE: enthalpy          _new < enthalpy          _old

     new trust radius        =       0.3971486198 bohr
ibrav =      2
 celldm(1) =     11.48593218
Input lattice vectors:
    -0.41021186    -0.00000000     0.41021186
    -0.00030095     0.40991091     0.40991091
    -0.41021186     0.41021186     0.00000000
New lattice vectors in INITIAL alat:
    -0.41021186     0.00000000     0.41021186
     0.00000000     0.41021186     0.41021186
    -0.41021186     0.41021186     0.00000000
New lattice vectors in NEW alat (for information only):
    -0.50000000     0.00000000     0.50000000
     0.00000000     0.50000000     0.50000000
    -0.50000000     0.50000000     0.00000000
Discrepancy in bohr =     0.000000    0.000521    0.000000
     new conv_thr            =       0.0000000100 Ry

     new unit-cell volume =    378.82510 a.u.^3 (    56.13609 Ang^3 )
     density =      4.29569 g/cm^3

CELL_PARAMETERS (alat= 14.00000000)
  -0.410211863   0.000000000   0.410211863
   0.000000000   0.410211863   0.410211863
  -0.410211863   0.410211863   0.000000000

ATOMIC_POSITIONS (angstrom)
Ge           -0.2599101795       -0.2599101795       -0.2599101795
Ge            1.2854398382        1.2854398382        1.2854398382



     Writing config-only to output data dir /home/bond/Work/Lab3/test/Ge.save/
     NEW-OLD atomic charge density approx. for the potential

     Check: negative core charge=   -0.000002

     negative rho (up, down):  9.663E-02 0.000E+00
     extrapolated charge   19.03257, renormalised to   28.00000

     total cpu time spent up to now is       95.8 secs

     Self-consistent Calculation

     iteration #  1     ecut=    30.00 Ry     beta= 0.70
     Davidson diagonalization with overlap
     c_bands:  2 eigenvalues not converged
     c_bands:  1 eigenvalues not converged
     c_bands:  1 eigenvalues not converged
     c_bands:  1 eigenvalues not converged
     c_bands:  2 eigenvalues not converged
     c_bands:  1 eigenvalues not converged
     c_bands:  1 eigenvalues not converged
     c_bands:  1 eigenvalues not converged
     c_bands:  1 eigenvalues not converged
     c_bands:  1 eigenvalues not converged
     c_bands:  1 eigenvalues not converged
     c_bands:  1 eigenvalues not converged
     c_bands:  2 eigenvalues not converged
     c_bands:  1 eigenvalues not converged
     c_bands:  1 eigenvalues not converged
     c_bands:  1 eigenvalues not converged
     c_bands:  2 eigenvalues not converged
     c_bands:  1 eigenvalues not converged
     c_bands:  1 eigenvalues not converged
     c_bands:  1 eigenvalues not converged
     c_bands:  1 eigenvalues not converged
     c_bands:  1 eigenvalues not converged
     ethr =  1.00E-06,  avg # of iterations = 19.7

     total cpu time spent up to now is      102.0 secs

     total energy              =    -411.09052552 Ry
     estimated scf accuracy    <      16.73814626 Ry

     iteration #  2     ecut=    30.00 Ry     beta= 0.70
     Davidson diagonalization with overlap
     ethr =  1.00E-02,  avg # of iterations =  4.1

     total cpu time spent up to now is      104.4 secs

     total energy              =    -420.19650710 Ry
     estimated scf accuracy    <      27.17881165 Ry

     iteration #  3     ecut=    30.00 Ry     beta= 0.70
     Davidson diagonalization with overlap
     ethr =  1.00E-02,  avg # of iterations =  3.0

     total cpu time spent up to now is      106.5 secs

     total energy              =    -426.09010094 Ry
     estimated scf accuracy    <       0.26089626 Ry

     iteration #  4     ecut=    30.00 Ry     beta= 0.70
     Davidson diagonalization with overlap
     ethr =  9.32E-04,  avg # of iterations =  2.0

     total cpu time spent up to now is      108.0 secs

     total energy              =    -426.10986586 Ry
     estimated scf accuracy    <       0.00974897 Ry

     iteration #  5     ecut=    30.00 Ry     beta= 0.70
     Davidson diagonalization with overlap
     ethr =  3.48E-05,  avg # of iterations =  3.0

     total cpu time spent up to now is      109.8 secs

     total energy              =    -426.11245089 Ry
     estimated scf accuracy    <       0.00011413 Ry

     iteration #  6     ecut=    30.00 Ry     beta= 0.70
     Davidson diagonalization with overlap
     ethr =  4.08E-07,  avg # of iterations =  4.6

     total cpu time spent up to now is      111.7 secs

     total energy              =    -426.12037164 Ry
     estimated scf accuracy    <       0.00002712 Ry

     iteration #  7     ecut=    30.00 Ry     beta= 0.70
     Davidson diagonalization with overlap
     ethr =  9.68E-08,  avg # of iterations =  2.1

     total cpu time spent up to now is      113.2 secs

     total energy              =    -426.12037322 Ry
     estimated scf accuracy    <       0.00000324 Ry

     iteration #  8     ecut=    30.00 Ry     beta= 0.70
     Davidson diagonalization with overlap
     ethr =  1.16E-08,  avg # of iterations =  3.1

     total cpu time spent up to now is      114.6 secs

     total energy              =    -426.12583110 Ry
     estimated scf accuracy    <       0.00005029 Ry

     iteration #  9     ecut=    30.00 Ry     beta= 0.70
     Davidson diagonalization with overlap
     ethr =  1.16E-08,  avg # of iterations =  1.0

     total cpu time spent up to now is      115.9 secs

     total energy              =    -426.12582116 Ry
     estimated scf accuracy    <       0.00004658 Ry

     iteration # 10     ecut=    30.00 Ry     beta= 0.70
     Davidson diagonalization with overlap
     ethr =  1.16E-08,  avg # of iterations =  3.6

     total cpu time spent up to now is      117.4 secs

     total energy              =    -426.12581682 Ry
     estimated scf accuracy    <       0.00001710 Ry

     iteration # 11     ecut=    30.00 Ry     beta= 0.70
     Davidson diagonalization with overlap
     ethr =  1.16E-08,  avg # of iterations =  3.1

     total cpu time spent up to now is      118.9 secs

     total energy              =    -426.12581584 Ry
     estimated scf accuracy    <       0.00000348 Ry

     iteration # 12     ecut=    30.00 Ry     beta= 0.70
     Davidson diagonalization with overlap
     ethr =  1.16E-08,  avg # of iterations =  2.7

     total cpu time spent up to now is      120.8 secs

     total energy              =    -426.12581616 Ry
     estimated scf accuracy    <       0.00000002 Ry

     iteration # 13     ecut=    30.00 Ry     beta= 0.70
     Davidson diagonalization with overlap
     c_bands:  1 eigenvalues not converged
     ethr =  6.57E-11,  avg # of iterations =  5.6

     total cpu time spent up to now is      125.3 secs

     total energy              =    -426.13181109 Ry
     estimated scf accuracy    <       0.00004081 Ry

     iteration # 14     ecut=    30.00 Ry     beta= 0.70
     Davidson diagonalization with overlap
     ethr =  6.57E-11,  avg # of iterations =  1.0

     total cpu time spent up to now is      127.8 secs

     total energy              =    -426.13181120 Ry
     estimated scf accuracy    <       0.00004078 Ry

     iteration # 15     ecut=    30.00 Ry     beta= 0.70
     Davidson diagonalization with overlap
     ethr =  6.57E-11,  avg # of iterations =  1.0

     total cpu time spent up to now is      130.3 secs

     total energy              =    -426.13181116 Ry
     estimated scf accuracy    <       0.00004112 Ry

     iteration # 16     ecut=    30.00 Ry     beta= 0.70
     Davidson diagonalization with overlap
     ethr =  6.57E-11,  avg # of iterations =  1.0

     total cpu time spent up to now is      133.0 secs

     total energy              =    -426.13181100 Ry
     estimated scf accuracy    <       0.00004100 Ry

     iteration # 17     ecut=    30.00 Ry     beta= 0.70
     Davidson diagonalization with overlap
     ethr =  6.57E-11,  avg # of iterations =  1.0

     total cpu time spent up to now is      135.6 secs

     total energy              =    -426.13181135 Ry
     estimated scf accuracy    <       0.00004051 Ry

     iteration # 18     ecut=    30.00 Ry     beta= 0.70
     Davidson diagonalization with overlap
     ethr =  6.57E-11,  avg # of iterations =  1.9

     total cpu time spent up to now is      138.3 secs

     total energy              =    -426.13181164 Ry
     estimated scf accuracy    <       0.00004152 Ry

     iteration # 19     ecut=    30.00 Ry     beta= 0.70
     Davidson diagonalization with overlap
     ethr =  6.57E-11,  avg # of iterations =  1.3

     total cpu time spent up to now is      141.0 secs

     total energy              =    -426.13181140 Ry
     estimated scf accuracy    <       0.00004232 Ry

     iteration # 20     ecut=    30.00 Ry     beta= 0.70
     Davidson diagonalization with overlap
     ethr =  6.57E-11,  avg # of iterations =  1.0

     total cpu time spent up to now is      143.6 secs

     total energy              =    -426.13180915 Ry
     estimated scf accuracy    <       0.00004172 Ry

     iteration # 21     ecut=    30.00 Ry     beta= 0.70
     Davidson diagonalization with overlap
     ethr =  6.57E-11,  avg # of iterations =  4.7

     total cpu time spent up to now is      147.7 secs

     total energy              =    -426.13179264 Ry
     estimated scf accuracy    <       0.00003551 Ry

     iteration # 22     ecut=    30.00 Ry     beta= 0.70
     Davidson diagonalization with overlap
     ethr =  6.57E-11,  avg # of iterations =  8.0

     total cpu time spent up to now is      154.0 secs

     End of self-consistent calculation

          k =-0.1524 0.1524 0.1524 (  1898 PWs)   bands (ev):

   -19.0900 -19.0853 -19.0716 -19.0500 -19.0492 -18.9467 -18.9467 -18.9387
   -18.9278 -18.9260  -5.6026   2.5576   5.5257   5.8449

          k =-0.4571 0.4571-0.1524 (  1904 PWs)   bands (ev):

   -19.1030 -19.0841 -19.0747 -19.0367 -19.0281 -18.9681 -18.9563 -18.9452
   -18.9180 -18.9134  -4.8202   0.1294   3.5627   4.9853

          k = 0.4571-0.4571 0.7618 (  1912 PWs)   bands (ev):

   -19.1086 -19.0877 -19.0651 -19.0270 -19.0259 -18.9723 -18.9649 -18.9507
   -18.9137 -18.9095  -4.0298  -1.3179   3.3491   4.3204

          k = 0.1524-0.1524 0.4571 (  1922 PWs)   bands (ev):

   -19.0972 -19.0866 -19.0726 -19.0432 -19.0331 -18.9690 -18.9489 -18.9356
   -18.9242 -18.9194  -5.2008   1.1598   4.3137   4.5941

          k =-0.1524 0.7618 0.1524 (  1910 PWs)   bands (ev):

   -19.1052 -19.0903 -19.0678 -19.0278 -19.0090 -18.9971 -18.9623 -18.9386
   -18.9152 -18.9128  -4.4181  -0.4059   3.3293   3.8191

          k = 0.7618-0.1524 1.0665 (  1899 PWs)   bands (ev):

   -19.1110 -19.0995 -19.0457 -19.0128 -19.0079 -18.9872 -18.9832 -18.9673
   -18.9075 -18.9014  -3.2307  -1.9848   2.4558   3.1925

          k = 0.4571 0.1524 0.7618 (  1900 PWs)   bands (ev):

   -19.1025 -19.0999 -19.0461 -19.0298 -19.0163 -18.9873 -18.9642 -18.9577
   -18.9133 -18.9087  -4.1907  -0.7586   2.7624   3.9315

          k =-0.1524-1.0665 0.1524 (  1893 PWs)   bands (ev):

   -19.1103 -19.0941 -19.0523 -19.0262 -19.0065 -18.9835 -18.9825 -18.9528
   -18.9083 -18.9069  -3.3015  -1.9285   2.8000   3.4035

          k =-0.4571 0.4571 0.4571 (  1907 PWs)   bands (ev):

   -19.1014 -19.0849 -19.0756 -19.0329 -19.0326 -18.9620 -18.9592 -18.9450
   -18.9180 -18.9152  -4.5200  -0.6477   4.7646   5.2869

          k = 0.4571-0.4571 1.3712 (  1892 PWs)   bands (ev):

   -19.1157 -19.0913 -19.0516 -19.0194 -19.0113 -18.9856 -18.9802 -18.9579
   -18.9086 -18.9025  -3.6287  -1.6089   2.3237   4.0590

          k = 0.1524 0.1524 0.1524 (  1898 PWs)   bands (ev):

   -19.0879 -19.0879 -19.0650 -19.0521 -19.0521 -18.9458 -18.9458 -18.9380
   -18.9288 -18.9288  -5.6083   2.6911   5.2759   5.8207

          k = 0.4571 0.4571-0.1524 (  1904 PWs)   bands (ev):

   -19.1004 -19.0921 -19.0614 -19.0393 -19.0310 -18.9653 -18.9589 -18.9466
   -18.9169 -18.9159  -4.8374   0.2137   3.6232   4.7814

          k =-0.4571-0.4571-0.1524 (  1904 PWs)   bands (ev):

   -19.0976 -19.0938 -19.0538 -19.0418 -19.0337 -18.9647 -18.9586 -18.9478
   -18.9196 -18.9167  -4.8615   0.3513   3.5163   4.8188

          k =-0.4571-0.4571 0.7618 (  1912 PWs)   bands (ev):

   -19.1034 -19.0929 -19.0676 -19.0273 -19.0238 -18.9699 -18.9635 -18.9529
   -18.9157 -18.9083  -4.0284  -1.3266   3.5038   4.1490

          k = 0.4571 0.4571 0.7618 (  1912 PWs)   bands (ev):

   -19.0995 -19.0973 -19.0454 -19.0323 -19.0289 -18.9728 -18.9632 -18.9573
   -18.9173 -18.9119  -4.1492  -1.0185   3.3052   4.2069

          k =-0.1524-0.1524 0.4571 (  1922 PWs)   bands (ev):

   -19.0953 -19.0845 -19.0803 -19.0422 -19.0316 -18.9687 -18.9490 -18.9347
   -18.9255 -18.9179  -5.1954   1.1076   4.4369   4.5367

          k = 0.1524 0.1524 0.4571 (  1922 PWs)   bands (ev):

   -19.0937 -19.0916 -19.0645 -19.0456 -19.0351 -18.9688 -18.9476 -18.9355
   -18.9272 -18.9204  -5.2136   1.2821   4.3164   4.4655

          k = 0.7618 0.1524 0.1524 (  1910 PWs)   bands (ev):

   -19.0991 -19.0984 -19.0604 -19.0293 -19.0101 -18.9975 -18.9619 -18.9395
   -18.9180 -18.9122  -4.4422  -0.3126   3.3569   3.7180

          k =-0.1524 0.7618-0.1524 (  1910 PWs)   bands (ev):

   -19.1015 -19.0914 -19.0744 -19.0273 -19.0092 -18.9934 -18.9621 -18.9386
   -18.9172 -18.9109  -4.4073  -0.4530   3.5031   3.7004

          k =-0.1524-0.7618 1.0665 (  1899 PWs)   bands (ev):

   -19.1143 -19.0968 -19.0415 -19.0135 -19.0048 -18.9972 -18.9841 -18.9628
   -18.9062 -18.9023  -3.2359  -1.9720   2.3884   3.2416

          k = 0.1524 0.7618 1.0665 (  1899 PWs)   bands (ev):

   -19.1084 -19.1025 -19.0368 -19.0131 -19.0103 -18.9925 -18.9825 -18.9674
   -18.9080 -18.9022  -3.3327  -1.8212   2.4076   3.1786

          k =-1.0665-0.1524 0.7618 (  1899 PWs)   bands (ev):

   -19.1164 -19.0943 -19.0440 -19.0110 -19.0071 -18.9976 -18.9832 -18.9621
   -18.9056 -18.9021  -3.1909  -2.0363   2.3389   3.3214

          k = 0.1524-0.4571 0.7618 (  1900 PWs)   bands (ev):

   -19.1120 -19.0888 -19.0608 -19.0267 -19.0137 -18.9876 -18.9645 -18.9533
   -18.9101 -18.9077  -4.1145  -0.9782   2.7533   4.0988

          k =-0.1524 0.4571 0.7618 (  1900 PWs)   bands (ev):

   -19.1071 -19.0958 -19.0535 -19.0275 -19.0157 -18.9860 -18.9652 -18.9550
   -18.9118 -18.9077  -4.1462  -0.8960   2.8421   3.9234

          k =-0.7618 0.1524 0.4571 (  1900 PWs)   bands (ev):

   -19.1085 -19.0922 -19.0632 -19.0268 -19.0131 -18.9839 -18.9644 -18.9549
   -18.9118 -18.9066  -4.1133  -0.9890   2.8395   4.0102

          k =-1.0665 0.1524 0.1524 (  1893 PWs)   bands (ev):

   -19.1055 -19.0983 -19.0564 -19.0242 -19.0073 -18.9819 -18.9785 -18.9556
   -18.9107 -18.9050  -3.2969  -1.9403   2.9239   3.3021

          k =-0.1524-1.0665-0.1524 (  1893 PWs)   bands (ev):

   -19.1047 -19.1005 -19.0477 -19.0286 -19.0078 -18.9821 -18.9805 -18.9553
   -18.9110 -18.9054  -3.3539  -1.8472   2.8732   3.3080

          k = 0.4571 0.4571 0.4571 (  1907 PWs)   bands (ev):

   -19.0944 -19.0944 -19.0512 -19.0390 -19.0390 -18.9583 -18.9583 -18.9526
   -18.9201 -18.9201  -4.5956  -0.3782   4.5795   4.5795

          k =-0.4571-0.4571 1.3712 (  1892 PWs)   bands (ev):

   -19.1039 -19.1030 -19.0424 -19.0162 -19.0140 -18.9877 -18.9780 -18.9639
   -18.9117 -18.9036  -3.7570  -1.3497   2.3212   3.9418

          k = 0.4571 0.4571 1.3712 (  1892 PWs)   bands (ev):

   -19.1052 -19.1022 -19.0508 -19.0154 -19.0145 -18.9800 -18.9780 -18.9647
   -18.9111 -18.9023  -3.6811  -1.5176   2.4185   3.9215

     highest occupied level (ev):     5.8449

!    total energy              =    -426.13179631 Ry
     estimated scf accuracy    <          8.6E-09 Ry

     The total energy is the sum of the following terms:
     one-electron contribution =    -301.91677147 Ry
     hartree contribution      =     173.92367250 Ry
     xc contribution           =    -114.30894067 Ry
     ewald contribution        =    -183.82975667 Ry

     convergence has been achieved in  22 iterations

     Forces acting on atoms (cartesian axes, Ry/au):

     atom    1 type  1   force =     0.01285697    0.01285697    0.01285697
     atom    2 type  1   force =    -0.01285697   -0.01285697   -0.01285697

     Total force =     0.031493     Total SCF correction =     0.000385


     Computing stress (Cartesian axis) and pressure

          total   stress  (Ry/bohr**3)                   (kbar)     P=      -89.79
  -0.00061040  -0.00001266  -0.00001266          -89.79       -1.86       -1.86
  -0.00001266  -0.00061040  -0.00001266           -1.86      -89.79       -1.86
  -0.00001266  -0.00001266  -0.00061040           -1.86       -1.86      -89.79

     Energy error            =      1.0E-01 Ry
     Gradient error          =      1.3E-02 Ry/Bohr
     Cell gradient error     =      9.0E+01 kbar

     number of scf cycles    =   5
     number of bfgs steps    =   4

     enthalpy           old  =    -426.0308945574 Ry
     enthalpy           new  =    -426.1317963057 Ry

     CASE: enthalpy          _new < enthalpy          _old

     new trust radius        =       0.3923647138 bohr
ibrav =      2
 celldm(1) =     10.32150492
Input lattice vectors:
    -0.36862518     0.00000000     0.36862518
     0.00048127     0.36910644     0.36910644
    -0.36862518     0.36862518    -0.00000000
New lattice vectors in INITIAL alat:
    -0.36862518     0.00000000     0.36862518
     0.00000000     0.36862518     0.36862518
    -0.36862518     0.36862518     0.00000000
New lattice vectors in NEW alat (for information only):
    -0.50000000     0.00000000     0.50000000
     0.00000000     0.50000000     0.50000000
    -0.50000000     0.50000000     0.00000000
Discrepancy in bohr =     0.000000    0.000834    0.000000
     new conv_thr            =       0.0000000100 Ry

     new unit-cell volume =    274.89642 a.u.^3 (    40.73545 Ang^3 )
     density =      5.91975 g/cm^3

CELL_PARAMETERS (alat= 14.00000000)
  -0.368625176   0.000000000   0.368625176
   0.000000000   0.368625176   0.368625176
  -0.368625176   0.368625176   0.000000000

ATOMIC_POSITIONS (angstrom)
Ge           -0.3107714569       -0.3107714569       -0.3107714569
Ge            1.2323343965        1.2323343965        1.2323343965



     Writing config-only to output data dir /home/bond/Work/Lab3/test/Ge.save/
     NEW-OLD atomic charge density approx. for the potential

     Check: negative core charge=   -0.000002

     negative rho (up, down):  1.853E-02 0.000E+00
     extrapolated charge   17.41472, renormalised to   28.00000

     total cpu time spent up to now is      159.5 secs

     Self-consistent Calculation

     iteration #  1     ecut=    30.00 Ry     beta= 0.70
     Davidson diagonalization with overlap
     c_bands:  2 eigenvalues not converged
     c_bands:  2 eigenvalues not converged
     c_bands:  2 eigenvalues not converged
     c_bands:  2 eigenvalues not converged
     c_bands:  2 eigenvalues not converged
     c_bands:  2 eigenvalues not converged
     c_bands:  2 eigenvalues not converged
     c_bands:  2 eigenvalues not converged
     c_bands:  2 eigenvalues not converged
     c_bands:  2 eigenvalues not converged
     c_bands:  1 eigenvalues not converged
     c_bands:  1 eigenvalues not converged
     c_bands:  2 eigenvalues not converged
     c_bands:  1 eigenvalues not converged
     c_bands:  2 eigenvalues not converged
     c_bands:  1 eigenvalues not converged
     c_bands:  1 eigenvalues not converged
     c_bands:  1 eigenvalues not converged
     c_bands:  1 eigenvalues not converged
     c_bands:  2 eigenvalues not converged
     c_bands:  2 eigenvalues not converged
     c_bands:  2 eigenvalues not converged
     c_bands:  2 eigenvalues not converged
     c_bands:  2 eigenvalues not converged
     c_bands:  2 eigenvalues not converged
     c_bands:  1 eigenvalues not converged
     c_bands:  1 eigenvalues not converged
     c_bands:  2 eigenvalues not converged
     c_bands:  1 eigenvalues not converged
     ethr =  1.00E-06,  avg # of iterations = 20.0

     total cpu time spent up to now is      173.0 secs

     total energy              =    -367.95234361 Ry
     estimated scf accuracy    <      44.86461396 Ry

     iteration #  2     ecut=    30.00 Ry     beta= 0.70
     Davidson diagonalization with overlap
     ethr =  1.00E-02,  avg # of iterations =  7.9

     total cpu time spent up to now is      179.6 secs

     total energy              =    -394.22331232 Ry
     estimated scf accuracy    <     218.31540602 Ry

     iteration #  3     ecut=    30.00 Ry     beta= 0.70
     Davidson diagonalization with overlap
     ethr =  1.00E-02,  avg # of iterations =  4.0

     total cpu time spent up to now is      184.3 secs

     total energy              =    -426.34122010 Ry
     estimated scf accuracy    <       2.88362880 Ry

     iteration #  4     ecut=    30.00 Ry     beta= 0.70
     Davidson diagonalization with overlap
     ethr =  1.00E-02,  avg # of iterations =  1.2

     total cpu time spent up to now is      187.0 secs

     total energy              =    -426.05411825 Ry
     estimated scf accuracy    <       0.71447955 Ry

     iteration #  5     ecut=    30.00 Ry     beta= 0.70
     Davidson diagonalization with overlap
     ethr =  2.55E-03,  avg # of iterations =  2.1

     total cpu time spent up to now is      190.0 secs

     total energy              =    -426.08043483 Ry
     estimated scf accuracy    <       0.09397903 Ry

     iteration #  6     ecut=    30.00 Ry     beta= 0.70
     Davidson diagonalization with overlap
     ethr =  3.36E-04,  avg # of iterations =  1.8

     total cpu time spent up to now is      192.8 secs

     total energy              =    -426.08180602 Ry
     estimated scf accuracy    <       0.01909097 Ry

     iteration #  7     ecut=    30.00 Ry     beta= 0.70
     Davidson diagonalization with overlap
     ethr =  6.82E-05,  avg # of iterations =  2.0

     total cpu time spent up to now is      195.6 secs

     total energy              =    -426.07986515 Ry
     estimated scf accuracy    <       0.00588195 Ry

     iteration #  8     ecut=    30.00 Ry     beta= 0.70
     Davidson diagonalization with overlap
     ethr =  2.10E-05,  avg # of iterations =  2.2

     total cpu time spent up to now is      199.0 secs

     total energy              =    -426.08046876 Ry
     estimated scf accuracy    <       0.00050482 Ry

     iteration #  9     ecut=    30.00 Ry     beta= 0.70
     Davidson diagonalization with overlap
     ethr =  1.80E-06,  avg # of iterations =  2.3

     total cpu time spent up to now is      201.8 secs

     total energy              =    -426.08041309 Ry
     estimated scf accuracy    <       0.00017494 Ry

     iteration # 10     ecut=    30.00 Ry     beta= 0.70
     Davidson diagonalization with overlap
     ethr =  6.25E-07,  avg # of iterations =  2.0

     total cpu time spent up to now is      205.0 secs

     total energy              =    -426.08042847 Ry
     estimated scf accuracy    <       0.00001448 Ry

     iteration # 11     ecut=    30.00 Ry     beta= 0.70
     Davidson diagonalization with overlap
     ethr =  5.17E-08,  avg # of iterations =  3.4

     total cpu time spent up to now is      208.8 secs

     total energy              =    -426.10459437 Ry
     estimated scf accuracy    <       0.00017047 Ry

     iteration # 12     ecut=    30.00 Ry     beta= 0.70
     Davidson diagonalization with overlap
     ethr =  5.17E-08,  avg # of iterations =  1.0

     total cpu time spent up to now is      211.3 secs

     total energy              =    -426.10459577 Ry
     estimated scf accuracy    <       0.00017358 Ry

     iteration # 13     ecut=    30.00 Ry     beta= 0.70
     Davidson diagonalization with overlap
     ethr =  5.17E-08,  avg # of iterations =  1.0

     total cpu time spent up to now is      214.0 secs

     total energy              =    -426.10460009 Ry
     estimated scf accuracy    <       0.00017691 Ry

     iteration # 14     ecut=    30.00 Ry     beta= 0.70
     Davidson diagonalization with overlap
     ethr =  5.17E-08,  avg # of iterations =  1.0

     total cpu time spent up to now is      216.5 secs

     total energy              =    -426.10460194 Ry
     estimated scf accuracy    <       0.00018849 Ry

     iteration # 15     ecut=    30.00 Ry     beta= 0.70
     Davidson diagonalization with overlap
     ethr =  5.17E-08,  avg # of iterations =  1.0

     total cpu time spent up to now is      219.0 secs

     total energy              =    -426.10460126 Ry
     estimated scf accuracy    <       0.00019348 Ry

     iteration # 16     ecut=    30.00 Ry     beta= 0.70
     Davidson diagonalization with overlap
     ethr =  5.17E-08,  avg # of iterations =  1.0

     total cpu time spent up to now is      221.7 secs

     total energy              =    -426.10460195 Ry
     estimated scf accuracy    <       0.00019173 Ry

     iteration # 17     ecut=    30.00 Ry     beta= 0.70
     Davidson diagonalization with overlap
     ethr =  5.17E-08,  avg # of iterations =  1.3

     total cpu time spent up to now is      224.3 secs

     total energy              =    -426.11469819 Ry
     estimated scf accuracy    <       0.00047536 Ry

     iteration # 18     ecut=    30.00 Ry     beta= 0.70
     Davidson diagonalization with overlap
     ethr =  5.17E-08,  avg # of iterations =  1.0

     total cpu time spent up to now is      226.8 secs

     total energy              =    -426.11468022 Ry
     estimated scf accuracy    <       0.00047650 Ry

     iteration # 19     ecut=    30.00 Ry     beta= 0.70
     Davidson diagonalization with overlap
     ethr =  5.17E-08,  avg # of iterations =  1.0

     total cpu time spent up to now is      229.5 secs

     total energy              =    -426.11453884 Ry
     estimated scf accuracy    <       0.00043127 Ry

     iteration # 20     ecut=    30.00 Ry     beta= 0.70
     Davidson diagonalization with overlap
     ethr =  5.17E-08,  avg # of iterations =  3.4

     total cpu time spent up to now is      233.3 secs

     total energy              =    -426.11455188 Ry
     estimated scf accuracy    <       0.00010070 Ry

     iteration # 21     ecut=    30.00 Ry     beta= 0.70
     Davidson diagonalization with overlap
[...]
     hartree contribution      =     164.11342082 Ry
     xc contribution           =    -114.56614542 Ry
     ewald contribution        =    -198.89569018 Ry

     convergence has been achieved in  15 iterations

     Forces acting on atoms (cartesian axes, Ry/au):

     atom    1 type  1   force =    -0.00006095   -0.00006095   -0.00006095
     atom    2 type  1   force =     0.00006095    0.00006095    0.00006095

     Total force =     0.000149     Total SCF correction =     0.000001


     Computing stress (Cartesian axis) and pressure

          total   stress  (Ry/bohr**3)                   (kbar)     P=       -0.06
  -0.00000040   0.00000028   0.00000028           -0.06        0.04        0.04
   0.00000028  -0.00000040   0.00000028            0.04       -0.06        0.04
   0.00000028   0.00000028  -0.00000040            0.04        0.04       -0.06

     Energy error            =      5.9E-07 Ry
     Gradient error          =      6.1E-05 Ry/Bohr
     Cell gradient error     =      5.8E-02 kbar
ibrav =      2
 celldm(1) =     10.61674502
Input lattice vectors:
    -0.37916946     0.00000000     0.37916946
     0.00000000     0.37916946     0.37916946
    -0.37916946     0.37916946     0.00000000
New lattice vectors in INITIAL alat:
    -0.37916946     0.00000000     0.37916946
     0.00000000     0.37916946     0.37916946
    -0.37916946     0.37916946     0.00000000
New lattice vectors in NEW alat (for information only):
    -0.50000000     0.00000000     0.50000000
     0.00000000     0.50000000     0.50000000
    -0.50000000     0.50000000     0.00000000
Discrepancy in bohr =     0.000000    0.000000    0.000000

     bfgs converged in  14 scf cycles and  12 bfgs steps
     (criteria: energy <  1.0E-05 Ry, force <  1.0E-04 Ry/Bohr, cell <  5.0E-01 kbar)

     End of BFGS Geometry Optimization

     Final enthalpy           =    -426.1711825607 Ry

     File /home/bond/Work/Lab3/test/Ge.bfgs deleted, as requested
Begin final coordinates
     new unit-cell volume =    299.16733 a.u.^3 (    44.33202 Ang^3 )
     density =      5.43949 g/cm^3

CELL_PARAMETERS (alat= 14.00000000)
  -0.379169465   0.000000000   0.379169465
   0.000000000   0.379169465   0.379169465
  -0.379169465   0.379169465   0.000000000

ATOMIC_POSITIONS (angstrom)
Ge           -0.2282388643       -0.2282388643       -0.2282388643
Ge            1.1761625266        1.1761625266        1.1761625266
End final coordinates



     Writing config-only to output data dir /home/bond/Work/Lab3/test/Ge.save/

     Final scf calculation at the relaxed structure.
     The G-vectors are recalculated for the final unit cell
     Results may differ from those at the preceding step.

     G-vector sticks info
     --------------------
     sticks:   dense  smooth     PW     G-vecs:    dense   smooth      PW
     Sum         463     463    151                 6615     6615    1243

     Using Slab Decomposition



     bravais-lattice index     =            2
     lattice parameter (alat)  =      14.0000  a.u.
     unit-cell volume          =     299.1673 (a.u.)^3
     number of atoms/cell      =            2
     number of atomic types    =            1
     number of electrons       =        28.00
     number of Kohn-Sham states=           14
     kinetic-energy cutoff     =      30.0000  Ry
     charge density cutoff     =     120.0000  Ry
     scf convergence threshold =      1.0E-10
     mixing beta               =       0.7000
     number of iterations used =            8  plain     mixing
     press convergence thresh. =      5.0E-01
     Exchange-correlation=  SLA  PZ   NOGX NOGC
                           (   1   1   0   0   0   0   0)

     celldm(1)=  14.000000  celldm(2)=   0.000000  celldm(3)=   0.000000
     celldm(4)=   0.000000  celldm(5)=   0.000000  celldm(6)=   0.000000

     crystal axes: (cart. coord. in units of alat)
               a(1) = (  -0.379169   0.000000   0.379169 )  
               a(2) = (   0.000000   0.379169   0.379169 )  
               a(3) = (  -0.379169   0.379169   0.000000 )  

     reciprocal axes: (cart. coord. in units 2 pi/alat)
               b(1) = ( -1.318672 -1.318672  1.318672 )  
               b(2) = (  1.318672  1.318672  1.318672 )  
               b(3) = ( -1.318672  1.318672 -1.318672 )  


     PseudoPot. # 1 for Ge read from file:
     /home/bond/Software/qe-7.1/pseudo/ge_lda_v1.4.uspp.F.UPF
     MD5 check sum: bf9d52b59cc8a669818bb2b52e0c2ba0
     Pseudo is Ultrasoft + core correction, Zval = 14.0
     Generated by new atomic code, or converted to UPF format
     Using radial grid of  873 points,  6 beta functions with: 
                l(1) =   0
                l(2) =   0
                l(3) =   1
                l(4) =   1
                l(5) =   2
                l(6) =   2
     Q(r) pseudized with  8 coefficients,  rinner =    1.400   1.400   1.400
                                                       1.400   1.400

     atomic species   valence    mass     pseudopotential
        Ge            14.00    72.61000     Ge( 1.00)

      6 Sym. Ops. (no inversion) found



   Cartesian axes

     site n.     atom                  positions (alat units)
         1           Ge  tau(   1) = (  -0.0308078  -0.0308078  -0.0308078  )
         2           Ge  tau(   2) = (   0.1587589   0.1587589   0.1587589  )

     number of k points=    30
                       cart. coord. in units 2pi/alat
        k(    1) = (  -0.1648339   0.1648339   0.1648339), wk =   0.0468750
        k(    2) = (  -0.4945018   0.4945018  -0.1648339), wk =   0.0937500
        k(    3) = (   0.4945018  -0.4945018   0.8241697), wk =   0.0937500
        k(    4) = (   0.1648339  -0.1648339   0.4945018), wk =   0.0937500
        k(    5) = (  -0.1648339   0.8241697   0.1648339), wk =   0.0937500
        k(    6) = (   0.8241697  -0.1648339   1.1538376), wk =   0.0937500
        k(    7) = (   0.4945018   0.1648339   0.8241697), wk =   0.0937500
        k(    8) = (  -0.1648339  -1.1538376   0.1648339), wk =   0.0937500
        k(    9) = (  -0.4945018   0.4945018   0.4945018), wk =   0.0468750
        k(   10) = (   0.4945018  -0.4945018   1.4835055), wk =   0.0937500
        k(   11) = (   0.1648339   0.1648339   0.1648339), wk =   0.0156250
        k(   12) = (   0.4945018   0.4945018  -0.1648339), wk =   0.0468750
        k(   13) = (  -0.4945018  -0.4945018  -0.1648339), wk =   0.0468750
        k(   14) = (  -0.4945018  -0.4945018   0.8241697), wk =   0.0468750
        k(   15) = (   0.4945018   0.4945018   0.8241697), wk =   0.0468750
        k(   16) = (  -0.1648339  -0.1648339   0.4945018), wk =   0.0468750
        k(   17) = (   0.1648339   0.1648339   0.4945018), wk =   0.0468750
        k(   18) = (   0.8241697   0.1648339   0.1648339), wk =   0.0468750
        k(   19) = (  -0.1648339   0.8241697  -0.1648339), wk =   0.0468750
        k(   20) = (  -0.1648339  -0.8241697   1.1538376), wk =   0.0937500
        k(   21) = (   0.1648339   0.8241697   1.1538376), wk =   0.0937500
        k(   22) = (  -1.1538376  -0.1648339   0.8241697), wk =   0.0937500
        k(   23) = (   0.1648339  -0.4945018   0.8241697), wk =   0.0937500
        k(   24) = (  -0.1648339   0.4945018   0.8241697), wk =   0.0937500
        k(   25) = (  -0.8241697   0.1648339   0.4945018), wk =   0.0937500
        k(   26) = (  -1.1538376   0.1648339   0.1648339), wk =   0.0468750
        k(   27) = (  -0.1648339  -1.1538376  -0.1648339), wk =   0.0468750
        k(   28) = (   0.4945018   0.4945018   0.4945018), wk =   0.0156250
        k(   29) = (  -0.4945018  -0.4945018   1.4835055), wk =   0.0468750
        k(   30) = (   0.4945018   0.4945018   1.4835055), wk =   0.0468750

     Dense  grid:     6615 G-vectors     FFT dimensions: (  27,  27,  27)

     Estimated max dynamical RAM per process >      32.22 MB

     Check: negative core charge=   -0.000154

     Initial potential from superposition of free atoms

     starting charge      27.9986, renormalised to      28.0000
     Starting wfcs are   18 randomized atomic wfcs

     total cpu time spent up to now is      759.6 secs

     Self-consistent Calculation

     iteration #  1     ecut=    30.00 Ry     beta= 0.70
     Davidson diagonalization with overlap
     ethr =  1.00E-06,  avg # of iterations =  6.2

     total cpu time spent up to now is      763.0 secs

     total energy              =    -426.13688208 Ry
     estimated scf accuracy    <       0.03765729 Ry

     iteration #  2     ecut=    30.00 Ry     beta= 0.70
     Davidson diagonalization with overlap
     ethr =  1.34E-04,  avg # of iterations =  2.0

     total cpu time spent up to now is      764.5 secs

     total energy              =    -426.13872075 Ry
     estimated scf accuracy    <       0.00129865 Ry

     iteration #  3     ecut=    30.00 Ry     beta= 0.70
     Davidson diagonalization with overlap
     ethr =  4.64E-06,  avg # of iterations =  2.7

     total cpu time spent up to now is      766.2 secs

     total energy              =    -426.13886377 Ry
     estimated scf accuracy    <       0.00003907 Ry

     iteration #  4     ecut=    30.00 Ry     beta= 0.70
     Davidson diagonalization with overlap
     ethr =  1.40E-07,  avg # of iterations =  2.8

     total cpu time spent up to now is      768.3 secs

     total energy              =    -426.13887755 Ry
     estimated scf accuracy    <       0.00000320 Ry

     iteration #  5     ecut=    30.00 Ry     beta= 0.70
     Davidson diagonalization with overlap
     ethr =  1.14E-08,  avg # of iterations =  2.4

     total cpu time spent up to now is      770.3 secs

     total energy              =    -426.13887799 Ry
     estimated scf accuracy    <       0.00000007 Ry

     iteration #  6     ecut=    30.00 Ry     beta= 0.70
     Davidson diagonalization with overlap
     ethr =  2.64E-10,  avg # of iterations =  4.7

     total cpu time spent up to now is      772.5 secs

     total energy              =    -426.13887802 Ry
     estimated scf accuracy    <          4.6E-09 Ry

     iteration #  7     ecut=    30.00 Ry     beta= 0.70
     Davidson diagonalization with overlap
     ethr =  1.64E-11,  avg # of iterations =  2.4

     total cpu time spent up to now is      774.3 secs

     total energy              =    -426.13887802 Ry
     estimated scf accuracy    <          2.6E-10 Ry

     iteration #  8     ecut=    30.00 Ry     beta= 0.70
     Davidson diagonalization with overlap
     ethr =  9.20E-13,  avg # of iterations =  3.1

     total cpu time spent up to now is      776.5 secs

     End of self-consistent calculation

          k =-0.1648 0.1648 0.1648 (   851 PWs)   bands (ev):

   -16.5920 -16.5919 -16.5796 -16.5350 -16.5350 -16.3458 -16.3458 -16.3355
   -16.3059 -16.3059  -4.3544   6.0293   8.0851   8.0866

          k =-0.4945 0.4945-0.1648 (   835 PWs)   bands (ev):

   -16.6099 -16.6062 -16.5611 -16.5113 -16.4946 -16.3763 -16.3642 -16.3376
   -16.2914 -16.2839  -3.3672   2.8276   5.8038   7.4833

          k = 0.4945-0.4945 0.8242 (   825 PWs)   bands (ev):

   -16.6157 -16.6051 -16.5547 -16.4950 -16.4911 -16.3805 -16.3672 -16.3507
   -16.2769 -16.2723  -2.3146   0.8276   5.7055   6.6338

          k = 0.1648-0.1648 0.4945 (   838 PWs)   bands (ev):

   -16.6036 -16.5959 -16.5818 -16.5186 -16.4996 -16.3878 -16.3390 -16.3238
   -16.3042 -16.2904  -3.8443   4.1847   6.8684   6.9558

          k =-0.1648 0.8242 0.1648 (   829 PWs)   bands (ev):

   -16.6160 -16.6032 -16.5728 -16.4881 -16.4524 -16.4428 -16.3623 -16.3205
   -16.2864 -16.2761  -2.8469   2.2678   5.4970   5.9855

          k = 0.8242-0.1648 1.1538 (   826 PWs)   bands (ev):

   -16.6297 -16.6211 -16.5200 -16.4603 -16.4516 -16.4264 -16.4029 -16.3710
   -16.2621 -16.2561  -1.2972   0.2809   4.1748   5.2619

          k = 0.4945 0.1648 0.8242 (   829 PWs)   bands (ev):

   -16.6208 -16.6150 -16.5408 -16.4905 -16.4661 -16.4157 -16.3674 -16.3579
   -16.2753 -16.2666  -2.4629   1.5004   4.7892   6.2795

          k =-0.1648-1.1538 0.1648 (   822 PWs)   bands (ev):

   -16.6196 -16.6100 -16.5466 -16.4938 -16.4466 -16.4016 -16.4002 -16.3471
   -16.2654 -16.2622  -1.4208   0.3559   4.7715   5.4661

          k =-0.4945 0.4945 0.4945 (   832 PWs)   bands (ev):

   -16.6063 -16.6062 -16.5645 -16.5025 -16.5025 -16.3606 -16.3605 -16.3477
   -16.2883 -16.2882  -2.9649   1.6373   7.1317   7.1330

          k = 0.4945-0.4945 1.4835 (   833 PWs)   bands (ev):

   -16.6285 -16.6149 -16.5341 -16.4737 -16.4650 -16.4091 -16.3980 -16.3635
   -16.2748 -16.2621  -1.8303   0.7142   4.1665   6.3003

          k = 0.1648 0.1648 0.1648 (   851 PWs)   bands (ev):

   -16.5920 -16.5920 -16.5798 -16.5350 -16.5350 -16.3458 -16.3458 -16.3355
   -16.3059 -16.3059  -4.3544   6.0283   8.0864   8.0864

          k = 0.4945 0.4945-0.1648 (   835 PWs)   bands (ev):

   -16.6098 -16.6062 -16.5612 -16.5112 -16.4945 -16.3763 -16.3642 -16.3376
   -16.2913 -16.2839  -3.3671   2.8272   5.8035   7.4843

          k =-0.4945-0.4945-0.1648 (   835 PWs)   bands (ev):

   -16.6098 -16.6062 -16.5612 -16.5112 -16.4945 -16.3763 -16.3642 -16.3376
   -16.2913 -16.2839  -3.3670   2.8265   5.8041   7.4841

          k =-0.4945-0.4945 0.8242 (   825 PWs)   bands (ev):

   -16.6158 -16.6050 -16.5547 -16.4950 -16.4911 -16.3805 -16.3672 -16.3507
   -16.2769 -16.2723  -2.3146   0.8276   5.7047   6.6346

          k = 0.4945 0.4945 0.8242 (   825 PWs)   bands (ev):

   -16.6158 -16.6050 -16.5548 -16.4949 -16.4911 -16.3804 -16.3672 -16.3506
   -16.2769 -16.2723  -2.3140   0.8261   5.7057   6.6343

          k =-0.1648-0.1648 0.4945 (   838 PWs)   bands (ev):

   -16.6037 -16.5958 -16.5817 -16.5186 -16.4996 -16.3878 -16.3390 -16.3238
   -16.3042 -16.2903  -3.8444   4.1851   6.8672   6.9565

          k = 0.1648 0.1648 0.4945 (   838 PWs)   bands (ev):

   -16.6036 -16.5958 -16.5819 -16.5186 -16.4995 -16.3879 -16.3391 -16.3237
   -16.3042 -16.2903  -3.8443   4.1839   6.8685   6.9564

          k = 0.8242 0.1648 0.1648 (   829 PWs)   bands (ev):

   -16.6160 -16.6031 -16.5729 -16.4881 -16.4524 -16.4428 -16.3623 -16.3204
   -16.2864 -16.2760  -2.8468   2.2672   5.4970   5.9859

          k =-0.1648 0.8242-0.1648 (   829 PWs)   bands (ev):

   -16.6161 -16.6031 -16.5727 -16.4881 -16.4524 -16.4428 -16.3623 -16.3205
   -16.2864 -16.2760  -2.8470   2.2681   5.4961   5.9860

          k =-0.1648-0.8242 1.1538 (   826 PWs)   bands (ev):

   -16.6297 -16.6212 -16.5200 -16.4603 -16.4516 -16.4263 -16.4028 -16.3710
   -16.2621 -16.2561  -1.2972   0.2808   4.1751   5.2617

          k = 0.1648 0.8242 1.1538 (   826 PWs)   bands (ev):

   -16.6297 -16.6211 -16.5200 -16.4603 -16.4516 -16.4263 -16.4029 -16.3710
   -16.2621 -16.2561  -1.2967   0.2799   4.1751   5.2620

          k =-1.1538-0.1648 0.8242 (   826 PWs)   bands (ev):

   -16.6297 -16.6212 -16.5200 -16.4604 -16.4516 -16.4263 -16.4028 -16.3710
   -16.2620 -16.2561  -1.2974   0.2811   4.1754   5.2613

          k = 0.1648-0.4945 0.8242 (   829 PWs)   bands (ev):

   -16.6207 -16.6151 -16.5407 -16.4905 -16.4661 -16.4157 -16.3674 -16.3579
   -16.2753 -16.2667  -2.4632   1.5016   4.7892   6.2787

          k =-0.1648 0.4945 0.8242 (   829 PWs)   bands (ev):

   -16.6208 -16.6150 -16.5407 -16.4905 -16.4661 -16.4157 -16.3674 -16.3579
   -16.2753 -16.2667  -2.4631   1.5012   4.7887   6.2796

          k =-0.8242 0.1648 0.4945 (   829 PWs)   bands (ev):

   -16.6208 -16.6150 -16.5407 -16.4905 -16.4661 -16.4157 -16.3674 -16.3579
   -16.2753 -16.2667  -2.4632   1.5017   4.7887   6.2791

          k =-1.1538 0.1648 0.1648 (   822 PWs)   bands (ev):

   -16.6196 -16.6099 -16.5465 -16.4938 -16.4466 -16.4017 -16.4002 -16.3471
   -16.2655 -16.2622  -1.4208   0.3560   4.7709   5.4666

          k =-0.1648-1.1538-0.1648 (   822 PWs)   bands (ev):

   -16.6196 -16.6099 -16.5466 -16.4937 -16.4466 -16.4017 -16.4002 -16.3470
   -16.2655 -16.2622  -1.4205   0.3555   4.7712   5.4665

          k = 0.4945 0.4945 0.4945 (   832 PWs)   bands (ev):

   -16.6062 -16.6062 -16.5647 -16.5024 -16.5024 -16.3606 -16.3606 -16.3476
   -16.2882 -16.2882  -2.9645   1.6360   7.1326   7.1326

          k =-0.4945-0.4945 1.4835 (   833 PWs)   bands (ev):

   -16.6285 -16.6148 -16.5342 -16.4737 -16.4649 -16.4090 -16.3981 -16.3635
   -16.2748 -16.2621  -1.8297   0.7128   4.1666   6.3008

          k = 0.4945 0.4945 1.4835 (   833 PWs)   bands (ev):

   -16.6285 -16.6148 -16.5341 -16.4737 -16.4650 -16.4091 -16.3981 -16.3635
   -16.2748 -16.2621  -1.8301   0.7137   4.1660   6.3010

     highest occupied level (ev):     8.0866

!    total energy              =    -426.13887802 Ry
     estimated scf accuracy    <          1.0E-12 Ry

     The total energy is the sum of the following terms:
     one-electron contribution =    -276.66469096 Ry
     hartree contribution      =     163.94576629 Ry
     xc contribution           =    -114.52426314 Ry
     ewald contribution        =    -198.89569022 Ry

     convergence has been achieved in   8 iterations

     Forces acting on atoms (cartesian axes, Ry/au):

     atom    1 type  1   force =    -0.00006731   -0.00006731   -0.00006731
     atom    2 type  1   force =     0.00006731    0.00006731    0.00006731

     Total force =     0.000165     Total SCF correction =     0.000001


     Computing stress (Cartesian axis) and pressure

          total   stress  (Ry/bohr**3)                   (kbar)     P=     -146.89
  -0.00099853   0.00000028   0.00000028         -146.89        0.04        0.04
   0.00000028  -0.00099853   0.00000028            0.04     -146.89        0.04
   0.00000028   0.00000028  -0.00099853            0.04        0.04     -146.89


     Writing all to output data dir /home/bond/Work/Lab3/test/Ge.save/

     init_run     :      3.83s CPU      3.93s WALL (       2 calls)
     electrons    :    688.05s CPU    707.47s WALL (      15 calls)
     update_pot   :     12.16s CPU     12.24s WALL (      13 calls)
     forces       :     10.71s CPU     11.03s WALL (      15 calls)
     stress       :     41.16s CPU     42.26s WALL (      15 calls)

     Called by init_run:
     wfcinit      :      1.59s CPU      1.63s WALL (       2 calls)
     potinit      :      0.35s CPU      0.35s WALL (       2 calls)
     hinit0       :      1.84s CPU      1.86s WALL (       2 calls)

     Called by electrons:
     c_bands      :    576.95s CPU    587.26s WALL (     224 calls)
     sum_band     :     96.47s CPU    101.83s WALL (     224 calls)
     v_of_rho     :      1.10s CPU      1.13s WALL (     238 calls)
     newd         :     12.90s CPU     16.87s WALL (     238 calls)
     mix_rho      :      1.17s CPU      1.21s WALL (     224 calls)

     Called by c_bands:
     init_us_2    :     17.47s CPU     17.79s WALL (   14400 calls)
     init_us_2:cp :     17.41s CPU     17.74s WALL (   14400 calls)
     cegterg      :    537.87s CPU    547.43s WALL (    6720 calls)

     Called by *egterg:
     cdiaghg      :     13.92s CPU     14.16s WALL (   27351 calls)
     h_psi        :    444.33s CPU    452.26s WALL (   27831 calls)
     s_psi        :     16.26s CPU     16.78s WALL (   27831 calls)
     g_psi        :      3.51s CPU      3.57s WALL (   21051 calls)

     Called by h_psi:
     h_psi:calbec :     17.69s CPU     18.10s WALL (   27831 calls)
     vloc_psi     :    406.13s CPU    413.10s WALL (   27831 calls)
     add_vuspsi   :     18.03s CPU     18.44s WALL (   27831 calls)

     General routines
     calbec       :     23.63s CPU     24.04s WALL (   36801 calls)
     fft          :      1.46s CPU      1.48s WALL (    1086 calls)
     ffts         :      0.15s CPU      0.15s WALL (     224 calls)
     fftw         :    409.76s CPU    416.58s WALL (  671260 calls)

     Parallel routines

     PWSCF        :  12m36.86s CPU  12m58.34s WALL


   This run was terminated on:   4:52:48   3Mar2023            

=------------------------------------------------------------------------------=
   JOB DONE.
=------------------------------------------------------------------------------=
